<event>
 5    0  0.5626800E-005  0.3386862E+03  0.7546771E-02  0.1067357E+00
         21   -1    0    0  502  501  0.00000000000E+00  0.00000000000E+00  0.99434741536E+03  0.99434741536E+03  0.00000000000E+00 0. -1.
         21   -1    0    0  501  502 -0.00000000000E+00 -0.00000000000E+00 -0.11536045584E+03  0.11536045584E+03  0.00000000000E+00 0. -1.
         25    1    1    2    0    0 -0.13032606054E+03  0.19392158882E+03  0.39706928066E+03  0.47736723632E+03  0.12500000000E+03 0.  0.
         25    1    1    2    0    0  0.78187249759E+02 -0.26468027739E+02  0.34764113073E+03  0.37854082778E+03  0.12500000000E+03 0.  0.
         25    1    1    2    0    0  0.52138810786E+02 -0.16745356108E+03  0.13427654812E+03  0.25379980710E+03  0.12500000000E+03 0.  0.
</event>
<event>
 5    0  0.5626800E-005  0.4827370E+03  0.7546771E-02  0.1018386E+00
         21   -1    0    0  502  501  0.00000000000E+00  0.00000000000E+00  0.44376882194E+03  0.44376882194E+03  0.00000000000E+00 0.  1.
         21   -1    0    0  501  502 -0.00000000000E+00 -0.00000000000E+00 -0.52512705854E+03  0.52512705854E+03  0.00000000000E+00 0.  1.
         25    1    1    2    0    0 -0.10296471660E+03  0.25055409038E+03  0.51427052675E+02  0.30273557244E+03  0.12500000000E+03 0.  0.
         25    1    1    2    0    0  0.27782732334E+03 -0.30452062197E+03 -0.76273647100E+02  0.43745114017E+03  0.12500000000E+03 0.  0.
         25    1    1    2    0    0 -0.17486260674E+03  0.53966531585E+02 -0.56511642172E+02  0.22870916787E+03  0.12500000000E+03 0.  0.
</event>
<event>
 5    0  0.5736410E-005  0.3244561E+03  0.7546771E-02  0.1073617E+00
         21   -1    0    0  502  501  0.00000000000E+00  0.00000000000E+00  0.12696648097E+03  0.12696648097E+03  0.00000000000E+00 0. -1.
         21   -1    0    0  501  502 -0.00000000000E+00 -0.00000000000E+00 -0.82913031238E+03  0.82913031238E+03  0.00000000000E+00 0. -1.
         25    1    1    2    0    0 -0.10135431741E+02 -0.29771062657E+02 -0.19948083227E+01  0.12891090880E+03  0.12500000000E+03 0.  0.
         25    1    1    2    0    0  0.92957048175E+02 -0.13675606543E+03 -0.25353027966E+03  0.32748410181E+03  0.12500000000E+03 0.  0.
         25    1    1    2    0    0 -0.82821616433E+02  0.16652712809E+03 -0.44663874343E+03  0.49970178274E+03  0.12500000000E+03 0.  0.
</event>
<event>
 5    0  0.5626800E-005  0.3302394E+03  0.7546771E-02  0.1071031E+00
         21   -1    0    0  502  501  0.00000000000E+00  0.00000000000E+00  0.10359755353E+04  0.10359755353E+04  0.00000000000E+00 0. -1.
         21   -1    0    0  501  502 -0.00000000000E+00 -0.00000000000E+00 -0.10527087817E+03  0.10527087817E+03  0.00000000000E+00 0. -1.
         25    1    1    2    0    0  0.31266270631E+02 -0.14259815274E+03  0.78181375695E+02  0.20748286760E+03  0.12500000000E+03 0.  0.
         25    1    1    2    0    0 -0.15440537562E+02  0.10811729315E+02  0.64608906995E+03  0.65833987423E+03  0.12500000000E+03 0.  0.
         25    1    1    2    0    0 -0.15825733070E+02  0.13178642342E+03  0.20643421150E+03  0.27542367165E+03  0.12500000000E+03 0.  0.
</event>
<event>
 5    0  0.5626800E-005  0.3397163E+03  0.7546771E-02  0.1066917E+00
         21   -1    0    0  502  501  0.00000000000E+00  0.00000000000E+00  0.19229450157E+04  0.19229450157E+04  0.00000000000E+00 0. -1.
         21   -1    0    0  501  502 -0.00000000000E+00 -0.00000000000E+00 -0.60015824940E+02  0.60015824940E+02  0.00000000000E+00 0. -1.
         25    1    1    2    0    0 -0.10469683968E+03 -0.13567395150E+03  0.13073201494E+04  0.13244167857E+04  0.12500000000E+03 0.  0.
         25    1    1    2    0    0  0.82354208352E+02  0.51292794035E+02  0.43886342610E+03  0.46651824522E+03  0.12500000000E+03 0.  0.
         25    1    1    2    0    0  0.22342631324E+02  0.84381157465E+02  0.11674561535E+03  0.19202580975E+03  0.12500000000E+03 0.  0.
</event>
<event>
 5    0  0.5626800E-005  0.2351665E+03  0.7546771E-02  0.1123055E+00
         21   -1    0    0  502  501  0.00000000000E+00  0.00000000000E+00  0.96684871511E+02  0.96684871511E+02  0.00000000000E+00 0.  1.
         21   -1    0    0  501  502 -0.00000000000E+00 -0.00000000000E+00 -0.57199544117E+03  0.57199544117E+03  0.00000000000E+00 0.  1.
         25    1    1    2    0    0  0.68151257326E+02  0.26458783316E+02 -0.12565798582E+03  0.19172790744E+03  0.12500000000E+03 0.  0.
         25    1    1    2    0    0  0.61333176395E+02 -0.12939551289E+02 -0.11584421176E+03  0.18158764251E+03  0.12500000000E+03 0.  0.
         25    1    1    2    0    0 -0.12948443372E+03 -0.13519232027E+02 -0.23380837209E+03  0.29536476274E+03  0.12500000000E+03 0.  0.
</event>
<event>
 5    0  0.5626800E-005  0.3295419E+03  0.7546771E-02  0.1071340E+00
         21   -1    0    0  502  501  0.00000000000E+00  0.00000000000E+00  0.71666271064E+03  0.71666271064E+03  0.00000000000E+00 0.  1.
         21   -1    0    0  501  502 -0.00000000000E+00 -0.00000000000E+00 -0.15153278289E+03  0.15153278289E+03  0.00000000000E+00 0.  1.
         25    1    1    2    0    0  0.17965787101E+03  0.12080053202E+03  0.35544980621E+03  0.43455642198E+03  0.12500000000E+03 0.  0.
         25    1    1    2    0    0 -0.11700803823E+03  0.28254312158E+02  0.76112083729E+02  0.18949204853E+03  0.12500000000E+03 0.  0.
         25    1    1    2    0    0 -0.62649832786E+02 -0.14905484418E+03  0.13356803782E+03  0.24414702302E+03  0.12500000000E+03 0.  0.
</event>
<event>
 5    0  0.5626800E-005  0.2665760E+03  0.7546771E-02  0.1103255E+00
         21   -1    0    0  502  501  0.00000000000E+00  0.00000000000E+00  0.11963071495E+04  0.11963071495E+04  0.00000000000E+00 0.  1.
         21   -1    0    0  501  502 -0.00000000000E+00 -0.00000000000E+00 -0.59401749931E+02  0.59401749931E+02  0.00000000000E+00 0.  1.
         25    1    1    2    0    0  0.12771174909E+03 -0.48950759201E+02  0.64067382082E+03  0.66692909096E+03  0.12500000000E+03 0.  0.
         25    1    1    2    0    0 -0.73409845774E+02  0.57355626529E+02  0.37526672665E+03  0.40636041820E+03  0.12500000000E+03 0.  0.
         25    1    1    2    0    0 -0.54301903318E+02 -0.84048673282E+01  0.12096485206E+03  0.18241939023E+03  0.12500000000E+03 0.  0.
</event>
<event>
 5    0  0.5626800E-005  0.4289235E+03  0.7546771E-02  0.1034201E+00
         21   -1    0    0  502  501  0.00000000000E+00  0.00000000000E+00  0.10538848949E+04  0.10538848949E+04  0.00000000000E+00 0. -1.
         21   -1    0    0  501  502 -0.00000000000E+00 -0.00000000000E+00 -0.17456873786E+03  0.17456873786E+03  0.00000000000E+00 0. -1.
         25    1    1    2    0    0 -0.83162386987E+02  0.75988536444E+02  0.14044909429E+02  0.16885644720E+03  0.12500000000E+03 0.  0.
         25    1    1    2    0    0  0.24406107024E+03 -0.77645375903E+02  0.79422882788E+03  0.84381220745E+03  0.12500000000E+03 0.  0.
         25    1    1    2    0    0 -0.16089868325E+03  0.16568394596E+01  0.71042419763E+02  0.21578497815E+03  0.12500000000E+03 0.  0.
</event>
<event>
 5    0  0.5626800E-005  0.2884946E+03  0.7546771E-02  0.1091138E+00
         21   -1    0    0  502  501  0.00000000000E+00  0.00000000000E+00  0.30679846530E+03  0.30679846530E+03  0.00000000000E+00 0.  1.
         21   -1    0    0  501  502 -0.00000000000E+00 -0.00000000000E+00 -0.27128270802E+03  0.27128270802E+03  0.00000000000E+00 0.  1.
         25    1    1    2    0    0 -0.83553522161E+02  0.13260238739E+03  0.13366450665E+02  0.20091850639E+03  0.12500000000E+03 0.  0.
         25    1    1    2    0    0 -0.10529666082E+02  0.36384294043E+02  0.60084030333E+02  0.14376989053E+03  0.12500000000E+03 0.  0.
         25    1    1    2    0    0  0.94083188243E+02 -0.16898668143E+03 -0.37934723720E+02  0.23339277640E+03  0.12500000000E+03 0.  0.
</event>
<event>
 5    0  0.5626800E-005  0.2956516E+03  0.7546771E-02  0.1087435E+00
         21   -1    0    0  502  501  0.00000000000E+00  0.00000000000E+00  0.11390297529E+03  0.11390297529E+03  0.00000000000E+00 0. -1.
         21   -1    0    0  501  502 -0.00000000000E+00 -0.00000000000E+00 -0.76740613524E+03  0.76740613524E+03  0.00000000000E+00 0. -1.
         25    1    1    2    0    0 -0.25500985564E+02  0.16648054578E+03 -0.31901163322E+03  0.38178461797E+03  0.12500000000E+03 0.  0.
         25    1    1    2    0    0 -0.11088734318E+02 -0.76514912376E+01 -0.25174841335E+02  0.12821964741E+03  0.12500000000E+03 0.  0.
         25    1    1    2    0    0  0.36589719882E+02 -0.15882905454E+03 -0.30931668539E+03  0.37130484515E+03  0.12500000000E+03 0.  0.
</event>
<event>
 5    0  0.5626800E-005  0.3067171E+03  0.7546771E-02  0.1081930E+00
         21   -1    0    0  502  501  0.00000000000E+00  0.00000000000E+00  0.16536275628E+03  0.16536275628E+03  0.00000000000E+00 0.  1.
         21   -1    0    0  501  502 -0.00000000000E+00 -0.00000000000E+00 -0.56890316634E+03  0.56890316634E+03  0.00000000000E+00 0.  1.
         25    1    1    2    0    0  0.12239834949E+03 -0.11751387631E+02 -0.31288904944E+03  0.35866977616E+03  0.12500000000E+03 0.  0.
         25    1    1    2    0    0 -0.13696563227E+03  0.62731238376E+01 -0.14786077007E+03  0.23724827466E+03  0.12500000000E+03 0.  0.
         25    1    1    2    0    0  0.14567282773E+02  0.54782637934E+01  0.57209409456E+02  0.13834787180E+03  0.12500000000E+03 0.  0.
</event>
<event>
 5    0  0.5626800E-005  0.2395090E+03  0.7546771E-02  0.1120120E+00
         21   -1    0    0  502  501  0.00000000000E+00  0.00000000000E+00  0.44776533971E+03  0.44776533971E+03  0.00000000000E+00 0.  1.
         21   -1    0    0  501  502 -0.00000000000E+00 -0.00000000000E+00 -0.12811305277E+03  0.12811305277E+03  0.00000000000E+00 0.  1.
         25    1    1    2    0    0  0.62835571531E+02 -0.13403936922E+02  0.24278419907E+02  0.14262684266E+03  0.12500000000E+03 0.  0.
         25    1    1    2    0    0 -0.11461075026E+03  0.37143427411E+02  0.12264550770E+03  0.21256100027E+03  0.12500000000E+03 0.  0.
         25    1    1    2    0    0  0.51775178732E+02 -0.23739490489E+02  0.17272835934E+03  0.22069054955E+03  0.12500000000E+03 0.  0.
</event>
<event>
 5    0  0.5626800E-005  0.3616561E+03  0.7546771E-02  0.1057930E+00
         21   -1    0    0  502  501  0.00000000000E+00  0.00000000000E+00  0.36696995208E+03  0.36696995208E+03  0.00000000000E+00 0. -1.
         21   -1    0    0  501  502 -0.00000000000E+00 -0.00000000000E+00 -0.35641923224E+03  0.35641923224E+03  0.00000000000E+00 0. -1.
         25    1    1    2    0    0  0.26384815666E+02 -0.17796244238E+03  0.96645228317E+02  0.23944120270E+03  0.12500000000E+03 0.  0.
         25    1    1    2    0    0 -0.83083745712E+02  0.25963062299E+03  0.52814364124E+01  0.29993976523E+03  0.12500000000E+03 0.  0.
         25    1    1    2    0    0  0.56698930046E+02 -0.81668180609E+02 -0.91375944887E+02  0.18400821638E+03  0.12500000000E+03 0.  0.
</event>
<event>
 5    0  0.5626800E-005  0.2464008E+03  0.7546771E-02  0.1115601E+00
         21   -1    0    0  502  501  0.00000000000E+00  0.00000000000E+00  0.80481732621E+02  0.80481732621E+02  0.00000000000E+00 0.  1.
         21   -1    0    0  501  502 -0.00000000000E+00 -0.00000000000E+00 -0.75437414376E+03  0.75437414376E+03  0.00000000000E+00 0.  1.
         25    1    1    2    0    0  0.24397856573E+02  0.65574651188E+02 -0.44993143616E+03  0.47218490820E+03  0.12500000000E+03 0.  0.
         25    1    1    2    0    0  0.30962205682E+01  0.20255724391E+02 -0.13326347893E+03  0.18385873862E+03  0.12500000000E+03 0.  0.
         25    1    1    2    0    0 -0.27494077141E+02 -0.85830375578E+02 -0.90697496049E+02  0.17881222956E+03  0.12500000000E+03 0.  0.
</event>
<event>
 5    0  0.5626800E-005  0.5120191E+03  0.7546771E-02  0.1010689E+00
         21   -1    0    0  502  501  0.00000000000E+00  0.00000000000E+00  0.92627117416E+03  0.92627117416E+03  0.00000000000E+00 0. -1.
         21   -1    0    0  501  502 -0.00000000000E+00 -0.00000000000E+00 -0.28303110512E+03  0.28303110512E+03  0.00000000000E+00 0. -1.
         25    1    1    2    0    0  0.26769015172E+03  0.13072336679E+03  0.28296041146E+03  0.42946269967E+03  0.12500000000E+03 0.  0.
         25    1    1    2    0    0 -0.43249038353E+03 -0.11564437550E+02  0.20304810949E+03  0.49399919315E+03  0.12500000000E+03 0.  0.
         25    1    1    2    0    0  0.16480023181E+03 -0.11915892924E+03  0.15723154809E+03  0.28584038647E+03  0.12500000000E+03 0.  0.
</event>
<event>
 5    0  0.5626800E-005  0.2761903E+03  0.7546771E-02  0.1097788E+00
         21   -1    0    0  502  501  0.00000000000E+00  0.00000000000E+00  0.16903781805E+03  0.16903781805E+03  0.00000000000E+00 0.  1.
         21   -1    0    0  501  502 -0.00000000000E+00 -0.00000000000E+00 -0.45126649449E+03  0.45126649449E+03  0.00000000000E+00 0.  1.
         25    1    1    2    0    0  0.45362558529E+02  0.33867893874E+02 -0.25517554284E+02  0.13957414348E+03  0.12500000000E+03 0.  0.
         25    1    1    2    0    0  0.11351497044E+03 -0.40796529579E+02 -0.28932969109E+02  0.17610258954E+03  0.12500000000E+03 0.  0.
         25    1    1    2    0    0 -0.15887752897E+03  0.69286357051E+01 -0.22777815305E+03  0.30462757953E+03  0.12500000000E+03 0.  0.
</event>
<event>
 5    0  0.5626800E-005  0.2522402E+03  0.7546771E-02  0.1111897E+00
         21   -1    0    0  502  501  0.00000000000E+00  0.00000000000E+00  0.16482902911E+03  0.16482902911E+03  0.00000000000E+00 0. -1.
         21   -1    0    0  501  502 -0.00000000000E+00 -0.00000000000E+00 -0.38600688413E+03  0.38600688413E+03  0.00000000000E+00 0. -1.
         25    1    1    2    0    0 -0.10716034550E+02 -0.32350417116E+02 -0.24591988761E+03  0.27796218089E+03  0.12500000000E+03 0.  0.
         25    1    1    2    0    0 -0.40880745390E+00  0.51329819478E+02  0.48841037525E+02  0.14368494854E+03  0.12500000000E+03 0.  0.
         25    1    1    2    0    0  0.11124842004E+02 -0.18979402362E+02 -0.24099004936E+02  0.12918878381E+03  0.12500000000E+03 0.  0.
</event>
<event>
 5    0  0.5626800E-005  0.3254929E+03  0.7546771E-02  0.1073149E+00
         21   -1    0    0  502  501  0.00000000000E+00  0.00000000000E+00  0.10953574532E+03  0.10953574532E+03  0.00000000000E+00 0. -1.
         21   -1    0    0  501  502 -0.00000000000E+00 -0.00000000000E+00 -0.96722411474E+03  0.96722411474E+03  0.00000000000E+00 0. -1.
         25    1    1    2    0    0  0.24093064331E+02 -0.13125931275E+03 -0.27807215024E+03  0.33280415213E+03  0.12500000000E+03 0.  0.
         25    1    1    2    0    0 -0.57769086106E+02 -0.73755228432E+02 -0.43368586883E+03  0.46096153186E+03  0.12500000000E+03 0.  0.
         25    1    1    2    0    0  0.33676021775E+02  0.20501454119E+03 -0.14593035034E+03  0.28299417607E+03  0.12500000000E+03 0.  0.
</event>
<event>
 5    0  0.5626800E-005  0.4373877E+03  0.7546771E-02  0.1031551E+00
         21   -1    0    0  502  501  0.00000000000E+00  0.00000000000E+00  0.23479603462E+03  0.23479603462E+03  0.00000000000E+00 0.  1.
         21   -1    0    0  501  502 -0.00000000000E+00 -0.00000000000E+00 -0.81478364279E+03  0.81478364279E+03  0.00000000000E+00 0.  1.
         25    1    1    2    0    0 -0.16198734885E+03 -0.29966418682E+03 -0.19705813979E+03  0.41291093047E+03  0.12500000000E+03 0.  0.
         25    1    1    2    0    0 -0.50729179486E+02  0.57945206011E+02 -0.19298499680E+03  0.24248568110E+03  0.12500000000E+03 0.  0.
         25    1    1    2    0    0  0.21271652833E+03  0.24171898080E+03 -0.18994447159E+03  0.39418306584E+03  0.12500000000E+03 0.  0.
</event>
<event>
 5    0  0.5626800E-005  0.2830898E+03  0.7546771E-02  0.1094013E+00
         21   -1    0    0  502  501  0.00000000000E+00  0.00000000000E+00  0.72379622519E+02  0.72379622519E+02  0.00000000000E+00 0.  1.
         21   -1    0    0  501  502 -0.00000000000E+00 -0.00000000000E+00 -0.11072154474E+04  0.11072154474E+04  0.00000000000E+00 0.  1.
         25    1    1    2    0    0  0.43678975256E+02  0.16235172821E+01 -0.93645643963E+02  0.16218814791E+03  0.12500000000E+03 0.  0.
         25    1    1    2    0    0 -0.14168016391E+03 -0.80978817928E+02 -0.43879295161E+03  0.48455659337E+03  0.12500000000E+03 0.  0.
         25    1    1    2    0    0  0.98001188653E+02  0.79355300646E+02 -0.50239722934E+03  0.53285032867E+03  0.12500000000E+03 0.  0.
</event>
<event>
 5    0  0.6792600E-005  0.3554232E+03  0.7546771E-02  0.1060411E+00
         21   -1    0    0  502  501  0.00000000000E+00  0.00000000000E+00  0.61443943458E+03  0.61443943458E+03  0.00000000000E+00 0. -1.
         21   -1    0    0  501  502 -0.00000000000E+00 -0.00000000000E+00 -0.20559491392E+03  0.20559491392E+03  0.00000000000E+00 0. -1.
         25    1    1    2    0    0  0.10233402254E+03 -0.14035295455E+03  0.12091756100E+02  0.21434181716E+03  0.12500000000E+03 0.  0.
         25    1    1    2    0    0 -0.88579696327E+02 -0.12195587391E+02  0.37686127748E+03  0.40699449311E+03  0.12500000000E+03 0.  0.
         25    1    1    2    0    0 -0.13754326209E+02  0.15254854194E+03  0.19891487075E+02  0.19869803823E+03  0.12500000000E+03 0.  0.
</event>
<event>
 5    0  0.5626800E-005  0.2983073E+03  0.7546771E-02  0.1086090E+00
         21   -1    0    0  502  501  0.00000000000E+00  0.00000000000E+00  0.17396674732E+03  0.17396674732E+03  0.00000000000E+00 0. -1.
         21   -1    0    0  501  502 -0.00000000000E+00 -0.00000000000E+00 -0.51151887100E+03  0.51151887100E+03  0.00000000000E+00 0. -1.
         25    1    1    2    0    0  0.26074435641E+01 -0.51775879334E+02  0.94031829494E+02  0.16478630222E+03  0.12500000000E+03 0.  0.
         25    1    1    2    0    0 -0.32707091574E+02 -0.21738552720E+02 -0.12929276403E+03  0.18407590104E+03  0.12500000000E+03 0.  0.
         25    1    1    2    0    0  0.30099648010E+02  0.73514432054E+02 -0.30229118914E+03  0.33662341505E+03  0.12500000000E+03 0.  0.
</event>
<event>
 5    0  0.5626800E-005  0.2452064E+03  0.7546771E-02  0.1116372E+00
         21   -1    0    0  502  501  0.00000000000E+00  0.00000000000E+00  0.61877985518E+02  0.61877985518E+02  0.00000000000E+00 0. -1.
         21   -1    0    0  501  502 -0.00000000000E+00 -0.00000000000E+00 -0.97168947860E+03  0.97168947860E+03  0.00000000000E+00 0. -1.
         25    1    1    2    0    0  0.28818096638E+02 -0.78899813456E+02 -0.17510266940E+03  0.23095802235E+03  0.12500000000E+03 0.  0.
         25    1    1    2    0    0  0.61970668990E+02 -0.57421393633E+01 -0.41099751475E+03  0.43407060844E+03  0.12500000000E+03 0.  0.
         25    1    1    2    0    0 -0.90788765627E+02  0.84641952820E+02 -0.32371130892E+03  0.36853883332E+03  0.12500000000E+03 0.  0.
</event>
<event>
 5    0  0.5626800E-005  0.6030609E+03  0.7546771E-02  0.9899076E-01
         21   -1    0    0  502  501  0.00000000000E+00  0.00000000000E+00  0.18777833793E+03  0.18777833793E+03  0.00000000000E+00 0.  1.
         21   -1    0    0  501  502 -0.00000000000E+00 -0.00000000000E+00 -0.19367647246E+04  0.19367647246E+04  0.00000000000E+00 0.  1.
         25    1    1    2    0    0  0.31757739769E+03 -0.34325744702E+03 -0.37718824418E+03  0.61365874068E+03  0.12500000000E+03 0.  0.
         25    1    1    2    0    0 -0.11332510648E+03 -0.23148933913E+02 -0.21657308490E+03  0.27551289263E+03  0.12500000000E+03 0.  0.
         25    1    1    2    0    0 -0.20425229121E+03  0.36640638093E+03 -0.11552250575E+04  0.12353714292E+04  0.12500000000E+03 0.  0.
</event>
<event>
 5    0  0.5626800E-005  0.3016295E+03  0.7546771E-02  0.1084429E+00
         21   -1    0    0  502  501  0.00000000000E+00  0.00000000000E+00  0.38187756780E+02  0.38187756780E+02  0.00000000000E+00 0. -1.
         21   -1    0    0  501  502 -0.00000000000E+00 -0.00000000000E+00 -0.23824487765E+04  0.23824487765E+04  0.00000000000E+00 0. -1.
         25    1    1    2    0    0 -0.15726454146E+03  0.86915099642E+02 -0.10410072228E+04  0.10637703740E+04  0.12500000000E+03 0.  0.
         25    1    1    2    0    0  0.79251873353E+02 -0.64130584078E+02 -0.10551545593E+04  0.10674126359E+04  0.12500000000E+03 0.  0.
         25    1    1    2    0    0  0.78012668106E+02 -0.22784515564E+02 -0.24809923764E+03  0.28945352348E+03  0.12500000000E+03 0.  0.
</event>
<event>
 5    0  0.6256320E-005  0.2824024E+03  0.7546771E-02  0.1094384E+00
         21   -1    0    0  502  501  0.00000000000E+00  0.00000000000E+00  0.22372805167E+03  0.22372805167E+03  0.00000000000E+00 0.  1.
         21   -1    0    0  501  502 -0.00000000000E+00 -0.00000000000E+00 -0.35646452771E+03  0.35646452771E+03  0.00000000000E+00 0.  1.
         25    1    1    2    0    0 -0.75306487345E+02  0.85178028951E+02 -0.30790382714E+02  0.17175392665E+03  0.12500000000E+03 0.  0.
         25    1    1    2    0    0  0.91975051817E+02  0.78136704546E+02  0.93440757763E+01  0.17400306465E+03  0.12500000000E+03 0.  0.
         25    1    1    2    0    0 -0.16668564471E+02 -0.16331473350E+03 -0.11129016911E+03  0.23443558808E+03  0.12500000000E+03 0.  0.
</event>
<event>
 5    0  0.5626800E-005  0.2791865E+03  0.7546771E-02  0.1096134E+00
         21   -1    0    0  502  501  0.00000000000E+00  0.00000000000E+00  0.73713294455E+03  0.73713294455E+03  0.00000000000E+00 0.  1.
         21   -1    0    0  501  502 -0.00000000000E+00 -0.00000000000E+00 -0.10574087861E+03  0.10574087861E+03  0.00000000000E+00 0.  1.
         25    1    1    2    0    0  0.18112372587E+02  0.42069689009E+02  0.23739798272E+02  0.13522756670E+03  0.12500000000E+03 0.  0.
         25    1    1    2    0    0  0.42996602756E+02  0.24870627293E+02  0.77001771482E+02  0.15498880205E+03  0.12500000000E+03 0.  0.
         25    1    1    2    0    0 -0.61108975343E+02 -0.66940316302E+02  0.53065049618E+03  0.55265745440E+03  0.12500000000E+03 0.  0.
</event>
<event>
 5    0  0.5626800E-005  0.2423825E+03  0.7546771E-02  0.1118216E+00
         21   -1    0    0  502  501  0.00000000000E+00  0.00000000000E+00  0.13505665478E+04  0.13505665478E+04  0.00000000000E+00 0. -1.
         21   -1    0    0  501  502 -0.00000000000E+00 -0.00000000000E+00 -0.43499732896E+02  0.43499732896E+02  0.00000000000E+00 0. -1.
         25    1    1    2    0    0 -0.11541487815E+03  0.91993763243E+01  0.53886548299E+03  0.56516035900E+03  0.12500000000E+03 0.  0.
         25    1    1    2    0    0 -0.26652814852E+01 -0.49745160913E+02  0.31983259250E+03  0.34698641469E+03  0.12500000000E+03 0.  0.
         25    1    1    2    0    0  0.11808015963E+03  0.40545784588E+02  0.44836873944E+03  0.48191950702E+03  0.12500000000E+03 0.  0.
</event>
<event>
 5    0  0.5626800E-005  0.3584442E+03  0.7546771E-02  0.1059202E+00
         21   -1    0    0  502  501  0.00000000000E+00  0.00000000000E+00  0.51713348607E+03  0.51713348607E+03  0.00000000000E+00 0. -1.
         21   -1    0    0  501  502 -0.00000000000E+00 -0.00000000000E+00 -0.24845079877E+03  0.24845079877E+03  0.00000000000E+00 0. -1.
         25    1    1    2    0    0 -0.25971079762E+03  0.67770724722E+02  0.13076262907E+02  0.29637570444E+03  0.12500000000E+03 0.  0.
         25    1    1    2    0    0  0.11097782430E+03 -0.33687135479E+02  0.20290053271E+03  0.26503684038E+03  0.12500000000E+03 0.  0.
         25    1    1    2    0    0  0.14873297332E+03 -0.34083589242E+02  0.52705891676E+02  0.20417174003E+03  0.12500000000E+03 0.  0.
</event>
<event>
 5    0  0.5626800E-005  0.2327434E+03  0.7546771E-02  0.1124724E+00
         21   -1    0    0  502  501  0.00000000000E+00  0.00000000000E+00  0.15681622897E+03  0.15681622897E+03  0.00000000000E+00 0.  1.
         21   -1    0    0  501  502 -0.00000000000E+00 -0.00000000000E+00 -0.34543298062E+03  0.34543298062E+03  0.00000000000E+00 0.  1.
         25    1    1    2    0    0 -0.39118228442E+02  0.24239730902E+02 -0.92419172222E+01  0.13352233291E+03  0.12500000000E+03 0.  0.
         25    1    1    2    0    0  0.11843644106E+03 -0.38171409512E+01 -0.86081140144E+02  0.19255317142E+03  0.12500000000E+03 0.  0.
         25    1    1    2    0    0 -0.79318212620E+02 -0.20422589951E+02 -0.93293694278E+02  0.17617370526E+03  0.12500000000E+03 0.  0.
</event>
<event>
 5    0  0.5626800E-005  0.2829316E+03  0.7546771E-02  0.1094098E+00
         21   -1    0    0  502  501  0.00000000000E+00  0.00000000000E+00  0.98618177648E+03  0.98618177648E+03  0.00000000000E+00 0. -1.
         21   -1    0    0  501  502 -0.00000000000E+00 -0.00000000000E+00 -0.81171924552E+02  0.81171924552E+02  0.00000000000E+00 0.  1.
         25    1    1    2    0    0  0.49351438174E+02 -0.37243841375E+02  0.23445442372E+03  0.27279396066E+03  0.12500000000E+03 0.  0.
         25    1    1    2    0    0  0.40867305143E+02 -0.12788525361E+03  0.19299638342E+03  0.26626561689E+03  0.12500000000E+03 0.  0.
         25    1    1    2    0    0 -0.90218743318E+02  0.16512909499E+03  0.47755904478E+03  0.52829412349E+03  0.12500000000E+03 0.  0.
</event>
<event>
 5    0  0.5626800E-005  0.3230392E+03  0.7546771E-02  0.1074259E+00
         21   -1    0    0  502  501  0.00000000000E+00  0.00000000000E+00  0.23756764641E+04  0.23756764641E+04  0.00000000000E+00 0.  1.
         21   -1    0    0  501  502 -0.00000000000E+00 -0.00000000000E+00 -0.43926139887E+02  0.43926139887E+02  0.00000000000E+00 0.  1.
         25    1    1    2    0    0 -0.15903676865E+03 -0.86048296149E+01  0.14006903567E+04  0.14152474031E+04  0.12500000000E+03 0.  0.
         25    1    1    2    0    0  0.19261849812E+03 -0.33787537937E+02  0.47977484078E+03  0.53296564747E+03  0.12500000000E+03 0.  0.
         25    1    1    2    0    0 -0.33581729467E+02  0.42392367552E+02  0.45128512676E+03  0.47138955336E+03  0.12500000000E+03 0.  0.
</event>
<event>
 5    0  0.5626800E-005  0.2880714E+03  0.7546771E-02  0.1091360E+00
         21   -1    0    0  502  501  0.00000000000E+00  0.00000000000E+00  0.98955983612E+02  0.98955983612E+02  0.00000000000E+00 0. -1.
         21   -1    0    0  501  502 -0.00000000000E+00 -0.00000000000E+00 -0.83860654664E+03  0.83860654664E+03  0.00000000000E+00 0. -1.
         25    1    1    2    0    0  0.53935830078E+02  0.12885199708E+03 -0.11859250596E+03  0.22181319480E+03  0.12500000000E+03 0.  0.
         25    1    1    2    0    0  0.44488303933E+02 -0.64105709459E+02 -0.44926905127E+03  0.47281754578E+03  0.12500000000E+03 0.  0.
         25    1    1    2    0    0 -0.98424134012E+02 -0.64746287625E+02 -0.17178900580E+03  0.24293178967E+03  0.12500000000E+03 0.  0.
</event>
<event>
 5    0  0.5626800E-005  0.3301294E+03  0.7546771E-02  0.1071080E+00
         21   -1    0    0  502  501  0.00000000000E+00  0.00000000000E+00  0.61130064135E+02  0.61130064135E+02  0.00000000000E+00 0.  1.
         21   -1    0    0  501  502 -0.00000000000E+00 -0.00000000000E+00 -0.17828443485E+04  0.17828443485E+04  0.00000000000E+00 0.  1.
         25    1    1    2    0    0 -0.73023614322E+02  0.18987491602E+03 -0.42233691553E+03  0.48515812083E+03  0.12500000000E+03 0.  0.
         25    1    1    2    0    0  0.12448624283E+02  0.23578472172E+02 -0.62544652930E+03  0.63837236282E+03  0.12500000000E+03 0.  0.
         25    1    1    2    0    0  0.60574990039E+02 -0.21345338819E+03 -0.67393083954E+03  0.72044392900E+03  0.12500000000E+03 0.  0.
</event>
<event>
 5    0  0.5626800E-005  0.4040708E+03  0.7546771E-02  0.1042379E+00
         21   -1    0    0  502  501  0.00000000000E+00  0.00000000000E+00  0.45438517840E+03  0.45438517840E+03  0.00000000000E+00 0. -1.
         21   -1    0    0  501  502 -0.00000000000E+00 -0.00000000000E+00 -0.35932783046E+03  0.35932783046E+03  0.00000000000E+00 0. -1.
         25    1    1    2    0    0  0.52108414675E+02  0.20334448832E+03 -0.63447728954E+02  0.25241807012E+03  0.12500000000E+03 0.  0.
         25    1    1    2    0    0 -0.21299764771E+03 -0.20050799596E+03  0.28043963849E+02  0.31934764487E+03  0.12500000000E+03 0.  0.
         25    1    1    2    0    0  0.16088923304E+03 -0.28364923663E+01  0.13046111305E+03  0.24194729387E+03  0.12500000000E+03 0.  0.
</event>
<event>
 5    0  0.5626800E-005  0.2761654E+03  0.7546771E-02  0.1097802E+00
         21   -1    0    0  502  501  0.00000000000E+00  0.00000000000E+00  0.15038079928E+03  0.15038079928E+03  0.00000000000E+00 0. -1.
         21   -1    0    0  501  502 -0.00000000000E+00 -0.00000000000E+00 -0.50716130473E+03  0.50716130473E+03  0.00000000000E+00 0. -1.
         25    1    1    2    0    0  0.85451972792E+02  0.55948399666E+01 -0.10533112317E+03  0.18453451546E+03  0.12500000000E+03 0.  0.
         25    1    1    2    0    0 -0.18683563168E+03 -0.55309341095E+02 -0.15915943233E+03  0.28093309057E+03  0.12500000000E+03 0.  0.
         25    1    1    2    0    0  0.10138365889E+03  0.49714501129E+02 -0.92289949961E+02  0.19207449799E+03  0.12500000000E+03 0.  0.
</event>
<event>
 5    0  0.5890500E-005  0.4107902E+03  0.7546771E-02  0.1040106E+00
         21   -1    0    0  502  501  0.00000000000E+00  0.00000000000E+00  0.54585205089E+03  0.54585205089E+03  0.00000000000E+00 0. -1.
         21   -1    0    0  501  502 -0.00000000000E+00 -0.00000000000E+00 -0.30914711310E+03  0.30914711310E+03  0.00000000000E+00 0. -1.
         25    1    1    2    0    0 -0.63100657345E+01  0.95935452439E+02 -0.86079377000E+02  0.17966103392E+03  0.12500000000E+03 0.  0.
         25    1    1    2    0    0  0.18208179789E+03  0.14606030497E+03  0.18551144727E+03  0.32330618750E+03  0.12500000000E+03 0.  0.
         25    1    1    2    0    0 -0.17577173216E+03 -0.24199575741E+03  0.13727286752E+03  0.35203194257E+03  0.12500000000E+03 0.  0.
</event>
<event>
 5    0  0.5626800E-005  0.2589455E+03  0.7546771E-02  0.1107778E+00
         21   -1    0    0  502  501  0.00000000000E+00  0.00000000000E+00  0.22049424144E+03  0.22049424144E+03  0.00000000000E+00 0.  1.
         21   -1    0    0  501  502 -0.00000000000E+00 -0.00000000000E+00 -0.30410206511E+03  0.30410206511E+03  0.00000000000E+00 0.  1.
         25    1    1    2    0    0  0.42742308395E+02 -0.70256351151E+02 -0.88516373108E+02  0.17384765777E+03  0.12500000000E+03 0.  0.
         25    1    1    2    0    0 -0.74607107263E+01 -0.61438314985E+02 -0.63865618779E+02  0.15340842876E+03  0.12500000000E+03 0.  0.
         25    1    1    2    0    0 -0.35281597669E+02  0.13169466614E+03  0.68774168223E+02  0.19734022002E+03  0.12500000000E+03 0.  0.
</event>
<event>
 5    0  0.5626800E-005  0.2990060E+03  0.7546771E-02  0.1085739E+00
         21   -1    0    0  502  501  0.00000000000E+00  0.00000000000E+00  0.16214818013E+03  0.16214818013E+03  0.00000000000E+00 0.  1.
         21   -1    0    0  501  502 -0.00000000000E+00 -0.00000000000E+00 -0.55137601506E+03  0.55137601506E+03  0.00000000000E+00 0.  1.
         25    1    1    2    0    0  0.45452952038E+02 -0.86951745744E+02 -0.76545469474E+02  0.17638249866E+03  0.12500000000E+03 0.  0.
         25    1    1    2    0    0 -0.14825768847E+03  0.11596395027E+03 -0.29526220616E+03  0.37179665186E+03  0.12500000000E+03 0.  0.
         25    1    1    2    0    0  0.10280473643E+03 -0.29012204523E+02 -0.17420159302E+02  0.16534504466E+03  0.12500000000E+03 0.  0.
</event>
<event>
 5    0  0.5626800E-005  0.3802613E+03  0.7546771E-02  0.1050837E+00
         21   -1    0    0  502  501  0.00000000000E+00  0.00000000000E+00  0.17569583809E+03  0.17569583809E+03  0.00000000000E+00 0.  1.
         21   -1    0    0  501  502 -0.00000000000E+00 -0.00000000000E+00 -0.82300554568E+03  0.82300554568E+03  0.00000000000E+00 0.  1.
         25    1    1    2    0    0 -0.16659643885E+03 -0.20101978810E+03 -0.38322790381E+03  0.48026238131E+03  0.12500000000E+03 0.  0.
         25    1    1    2    0    0  0.12591840571E+03  0.74896864361E+02 -0.27523807293E+03  0.33592556017E+03  0.12500000000E+03 0.  0.
         25    1    1    2    0    0  0.40678033143E+02  0.12612292374E+03  0.11156269151E+02  0.18251344228E+03  0.12500000000E+03 0.  0.
</event>
<event>
 5    0  0.5626800E-005  0.2964173E+03  0.7546771E-02  0.1087045E+00
         21   -1    0    0  502  501  0.00000000000E+00  0.00000000000E+00  0.35513146918E+03  0.35513146918E+03  0.00000000000E+00 0.  1.
         21   -1    0    0  501  502 -0.00000000000E+00 -0.00000000000E+00 -0.24741036275E+03  0.24741036275E+03  0.00000000000E+00 0.  1.
         25    1    1    2    0    0 -0.87499119637E+02  0.11525031231E+03 -0.47135130635E+02  0.19694022181E+03  0.12500000000E+03 0.  0.
         25    1    1    2    0    0  0.10421015916E+03 -0.31751749109E+02  0.18809409468E+03  0.25074353291E+03  0.12500000000E+03 0.  0.
         25    1    1    2    0    0 -0.16711039523E+02 -0.83498563201E+02 -0.33237857614E+02  0.15485807721E+03  0.12500000000E+03 0.  0.
</event>
<event>
 5    0  0.5626800E-005  0.2548262E+03  0.7546771E-02  0.1110292E+00
         21   -1    0    0  502  501  0.00000000000E+00  0.00000000000E+00  0.10182961765E+03  0.10182961765E+03  0.00000000000E+00 0.  1.
         21   -1    0    0  501  502 -0.00000000000E+00 -0.00000000000E+00 -0.63769635353E+03  0.63769635353E+03  0.00000000000E+00 0.  1.
         25    1    1    2    0    0 -0.51381660281E+01  0.58504979199E+02 -0.48132021358E+02  0.14625636677E+03  0.12500000000E+03 0.  0.
         25    1    1    2    0    0 -0.24999305520E+02 -0.94847044465E+02 -0.11176290152E+03  0.19425980870E+03  0.12500000000E+03 0.  0.
         25    1    1    2    0    0  0.30137471548E+02  0.36342065266E+02 -0.37597181300E+03  0.39900979571E+03  0.12500000000E+03 0.  0.
</event>
<event>
 5    0  0.5626800E-005  0.3938781E+03  0.7546771E-02  0.1045920E+00
         21   -1    0    0  502  501  0.00000000000E+00  0.00000000000E+00  0.25846391788E+04  0.25846391788E+04  0.00000000000E+00 0.  1.
         21   -1    0    0  501  502 -0.00000000000E+00 -0.00000000000E+00 -0.60023826021E+02  0.60023826021E+02  0.00000000000E+00 0.  1.
         25    1    1    2    0    0  0.75688243123E+02 -0.26785433958E+03  0.15022791433E+04  0.15329521459E+04  0.12500000000E+03 0.  0.
         25    1    1    2    0    0 -0.67648381399E+01 -0.84162473358E+01  0.27576279282E+03  0.30296322245E+03  0.12500000000E+03 0.  0.
         25    1    1    2    0    0 -0.68923404983E+02  0.27627058692E+03  0.74657341664E+03  0.80874763640E+03  0.12500000000E+03 0.  0.
</event>
<event>
 5    0  0.5626800E-005  0.2133330E+03  0.7546771E-02  0.1138953E+00
         21   -1    0    0  502  501  0.00000000000E+00  0.00000000000E+00  0.10439017766E+04  0.10439017766E+04  0.00000000000E+00 0.  1.
         21   -1    0    0  501  502 -0.00000000000E+00 -0.00000000000E+00 -0.43596993727E+02  0.43596993727E+02  0.00000000000E+00 0.  1.
         25    1    1    2    0    0 -0.59895922825E+02 -0.32370007703E+02  0.21309544398E+03  0.25626159918E+03  0.12500000000E+03 0.  0.
         25    1    1    2    0    0 -0.21937463500E+01  0.22411237453E+02  0.37586537320E+03  0.39674532746E+03  0.12500000000E+03 0.  0.
         25    1    1    2    0    0  0.62089669175E+02  0.99587702495E+01  0.41134396573E+03  0.43449184373E+03  0.12500000000E+03 0.  0.
</event>
<event>
 5    0  0.5626800E-005  0.2334702E+03  0.7546771E-02  0.1124221E+00
         21   -1    0    0  502  501  0.00000000000E+00  0.00000000000E+00  0.37436873371E+03  0.37436873371E+03  0.00000000000E+00 0.  1.
         21   -1    0    0  501  502 -0.00000000000E+00 -0.00000000000E+00 -0.14560066870E+03  0.14560066870E+03  0.00000000000E+00 0.  1.
         25    1    1    2    0    0  0.23154831169E+02 -0.19091045678E+02  0.17093427285E+03  0.21387879714E+03  0.12500000000E+03 0.  0.
         25    1    1    2    0    0  0.43094314533E+02  0.49729895643E+02  0.75656680399E+02  0.16024704601E+03  0.12500000000E+03 0.  0.
         25    1    1    2    0    0 -0.66249145703E+02 -0.30638849964E+02 -0.17822888245E+02  0.14584355926E+03  0.12500000000E+03 0.  0.
</event>
<event>
 5    0  0.5626800E-005  0.3770265E+03  0.7546771E-02  0.1052038E+00
         21   -1    0    0  502  501  0.00000000000E+00  0.00000000000E+00  0.56781996762E+02  0.56781996762E+02  0.00000000000E+00 0.  1.
         21   -1    0    0  501  502 -0.00000000000E+00 -0.00000000000E+00 -0.25034161857E+04  0.25034161857E+04  0.00000000000E+00 0.  1.
         25    1    1    2    0    0 -0.11714301987E+03 -0.44601183344E+02 -0.18288048498E+04  0.18373524243E+04  0.12500000000E+03 0.  0.
         25    1    1    2    0    0 -0.42329527903E+02  0.94038182018E+02 -0.32711217901E+03  0.36505115568E+03  0.12500000000E+03 0.  0.
         25    1    1    2    0    0  0.15947254777E+03 -0.49436998674E+02 -0.29071716018E+03  0.35779460247E+03  0.12500000000E+03 0.  0.
</event>
<event>
 5    0  0.5800752E-005  0.3030417E+03  0.7546771E-02  0.1083730E+00
         21   -1    0    0  502  501  0.00000000000E+00  0.00000000000E+00  0.53712713280E+03  0.53712713280E+03  0.00000000000E+00 0.  1.
         21   -1    0    0  501  502 -0.00000000000E+00 -0.00000000000E+00 -0.17097308163E+03  0.17097308163E+03  0.00000000000E+00 0.  1.
         25    1    1    2    0    0  0.17844634736E+03  0.91314411403E+02  0.39048212689E+02  0.23943931074E+03  0.12500000000E+03 0.  0.
         25    1    1    2    0    0 -0.62996975343E+02 -0.63968746383E+02  0.20975915930E+03  0.26016249600E+03  0.12500000000E+03 0.  0.
         25    1    1    2    0    0 -0.11544937201E+03 -0.27345665020E+02  0.11734667918E+03  0.20849840769E+03  0.12500000000E+03 0.  0.
</event>
<event>
 5    0  0.5626800E-005  0.2820682E+03  0.7546771E-02  0.1094565E+00
         21   -1    0    0  502  501  0.00000000000E+00  0.00000000000E+00  0.56190781295E+02  0.56190781295E+02  0.00000000000E+00 0. -1.
         21   -1    0    0  501  502 -0.00000000000E+00 -0.00000000000E+00 -0.14159344320E+04  0.14159344320E+04  0.00000000000E+00 0. -1.
         25    1    1    2    0    0  0.72603220844E+02 -0.30805175642E+01 -0.20911736866E+03  0.25423569998E+03  0.12500000000E+03 0.  0.
         25    1    1    2    0    0 -0.11377477679E+03 -0.12589645742E+03 -0.52610320053E+03  0.56674879394E+03  0.12500000000E+03 0.  0.
         25    1    1    2    0    0  0.41171555945E+02  0.12897697499E+03 -0.62452308156E+03  0.65114071943E+03  0.12500000000E+03 0.  0.
</event>
<event>
 5    0  0.5626800E-005  0.2187786E+03  0.7546771E-02  0.1134797E+00
         21   -1    0    0  502  501  0.00000000000E+00  0.00000000000E+00  0.16353883193E+03  0.16353883193E+03  0.00000000000E+00 0.  1.
         21   -1    0    0  501  502 -0.00000000000E+00 -0.00000000000E+00 -0.29267716262E+03  0.29267716262E+03  0.00000000000E+00 0.  1.
         25    1    1    2    0    0  0.11341789149E+02  0.58279432643E+02  0.22410829046E+02  0.14018692417E+03  0.12500000000E+03 0.  0.
         25    1    1    2    0    0 -0.38078934637E+02 -0.43802214814E+02 -0.34421334012E+02  0.14205093284E+03  0.12500000000E+03 0.  0.
         25    1    1    2    0    0  0.26737145488E+02 -0.14477217829E+02 -0.11712782572E+03  0.17397813755E+03  0.12500000000E+03 0.  0.
</event>
<event>
 5    0  0.5626800E-005  0.2613509E+03  0.7546771E-02  0.1106334E+00
         21   -1    0    0  502  501  0.00000000000E+00  0.00000000000E+00  0.74151989736E+02  0.74151989736E+02  0.00000000000E+00 0.  1.
         21   -1    0    0  501  502 -0.00000000000E+00 -0.00000000000E+00 -0.92113887092E+03  0.92113887092E+03  0.00000000000E+00 0.  1.
         25    1    1    2    0    0 -0.92086851208E+02 -0.46614362029E+02 -0.25411700129E+03  0.30141887342E+03  0.12500000000E+03 0.  0.
         25    1    1    2    0    0 -0.56158237810E+02  0.42721405974E+02 -0.37840349746E+03  0.40471356920E+03  0.12500000000E+03 0.  0.
         25    1    1    2    0    0  0.14824508902E+03  0.38929560554E+01 -0.21446638244E+03  0.28915841803E+03  0.12500000000E+03 0.  0.
</event>
<event>
 5    0  0.5626800E-005  0.2569321E+03  0.7546771E-02  0.1109001E+00
         21   -1    0    0  502  501  0.00000000000E+00  0.00000000000E+00  0.63416239223E+03  0.63416239223E+03  0.00000000000E+00 0. -1.
         21   -1    0    0  501  502 -0.00000000000E+00 -0.00000000000E+00 -0.10409649868E+03  0.10409649868E+03  0.00000000000E+00 0. -1.
         25    1    1    2    0    0  0.39874959316E+02 -0.58844211948E+02  0.17725446981E+03  0.22824723597E+03  0.12500000000E+03 0.  0.
         25    1    1    2    0    0 -0.35545681729E+02  0.14489609529E+03  0.10978941657E+03  0.22346608224E+03  0.12500000000E+03 0.  0.
         25    1    1    2    0    0 -0.43292775868E+01 -0.86051883337E+02  0.24302200717E+03  0.28654557271E+03  0.12500000000E+03 0.  0.
</event>
<event>
 5    0  0.5626800E-005  0.2980958E+03  0.7546771E-02  0.1086196E+00
         21   -1    0    0  502  501  0.00000000000E+00  0.00000000000E+00  0.84192842251E+02  0.84192842251E+02  0.00000000000E+00 0.  1.
         21   -1    0    0  501  502 -0.00000000000E+00 -0.00000000000E+00 -0.10554472414E+04  0.10554472414E+04  0.00000000000E+00 0.  1.
         25    1    1    2    0    0 -0.45581488528E+02  0.10872084890E+03 -0.61572359985E+03  0.63924834493E+03  0.12500000000E+03 0.  0.
         25    1    1    2    0    0  0.15312650004E+02 -0.33876257542E+02 -0.18170297463E+02  0.13167094511E+03  0.12500000000E+03 0.  0.
         25    1    1    2    0    0  0.30268838524E+02 -0.74844591363E+02 -0.33736050179E+03  0.36872079357E+03  0.12500000000E+03 0.  0.
</event>
<event>
 5    0  0.5626800E-005  0.2387676E+03  0.7546771E-02  0.1120617E+00
         21   -1    0    0  502  501  0.00000000000E+00  0.00000000000E+00  0.32871760194E+03  0.32871760194E+03  0.00000000000E+00 0. -1.
         21   -1    0    0  501  502 -0.00000000000E+00 -0.00000000000E+00 -0.17343145527E+03  0.17343145527E+03  0.00000000000E+00 0. -1.
         25    1    1    2    0    0  0.92727067733E+02 -0.12131916545E+02  0.10995411434E+02  0.15649725736E+03  0.12500000000E+03 0.  0.
         25    1    1    2    0    0 -0.53495756297E+02  0.30409794408E+02  0.16032318936E+03  0.21240309928E+03  0.12500000000E+03 0.  0.
         25    1    1    2    0    0 -0.39231311435E+02 -0.18277877863E+02 -0.16032454133E+02  0.13324870056E+03  0.12500000000E+03 0.  0.
</event>
<event>
 5    0  0.5626800E-005  0.3967700E+03  0.7546771E-02  0.1044904E+00
         21   -1    0    0  502  501  0.00000000000E+00  0.00000000000E+00  0.13410104769E+04  0.13410104769E+04  0.00000000000E+00 0.  1.
         21   -1    0    0  501  502 -0.00000000000E+00 -0.00000000000E+00 -0.11739387328E+03  0.11739387328E+03  0.00000000000E+00 0.  1.
         25    1    1    2    0    0 -0.22028968445E+03  0.73548264421E+02  0.45882872336E+03  0.52923122513E+03  0.12500000000E+03 0.  0.
         25    1    1    2    0    0  0.32765081568E+03 -0.35845213878E+02  0.44750453645E+03  0.56967117403E+03  0.12500000000E+03 0.  0.
         25    1    1    2    0    0 -0.10736113124E+03 -0.37703050543E+02  0.31728334379E+03  0.35950195100E+03  0.12500000000E+03 0.  0.
</event>
<event>
 5    0  0.5626800E-005  0.5173197E+03  0.7546771E-02  0.1009355E+00
         21   -1    0    0  502  501  0.00000000000E+00  0.00000000000E+00  0.20766379457E+03  0.20766379457E+03  0.00000000000E+00 0.  1.
         21   -1    0    0  501  502 -0.00000000000E+00 -0.00000000000E+00 -0.12887161850E+04  0.12887161850E+04  0.00000000000E+00 0.  1.
         25    1    1    2    0    0  0.75085676874E+02  0.15065238954E+03 -0.62040155098E+03  0.65487180868E+03  0.12500000000E+03 0.  0.
         25    1    1    2    0    0  0.15282547649E+03 -0.12225102919E+03 -0.52339632008E+03  0.57259902923E+03  0.12500000000E+03 0.  0.
         25    1    1    2    0    0 -0.22791115336E+03 -0.28401360351E+02  0.62745480672E+02  0.26890914161E+03  0.12500000000E+03 0.  0.
</event>
<event>
 5    0  0.5761117E-005  0.2578162E+03  0.7546771E-02  0.1108462E+00
         21   -1    0    0  502  501  0.00000000000E+00  0.00000000000E+00  0.57476753936E+03  0.57476753936E+03  0.00000000000E+00 0.  1.
         21   -1    0    0  501  502 -0.00000000000E+00 -0.00000000000E+00 -0.11564536404E+03  0.11564536404E+03  0.00000000000E+00 0.  1.
         25    1    1    2    0    0  0.13498477694E+03  0.59134700016E+02  0.13281705679E+03  0.23448491066E+03  0.12500000000E+03 0.  0.
         25    1    1    2    0    0 -0.11430085067E+03  0.17106511949E+02  0.18470537454E+03  0.25119393424E+03  0.12500000000E+03 0.  0.
         25    1    1    2    0    0 -0.20683926271E+02 -0.76241211965E+02  0.14159974399E+03  0.20473405849E+03  0.12500000000E+03 0.  0.
</event>
<event>
 5    0  0.5626800E-005  0.2417534E+03  0.7546771E-02  0.1118630E+00
         21   -1    0    0  502  501  0.00000000000E+00  0.00000000000E+00  0.20697417073E+03  0.20697417073E+03  0.00000000000E+00 0.  1.
         21   -1    0    0  501  502 -0.00000000000E+00 -0.00000000000E+00 -0.28237690507E+03  0.28237690507E+03  0.00000000000E+00 0.  1.
         25    1    1    2    0    0  0.11322975980E+03 -0.24076439671E+02 -0.19573431442E+02  0.17148986171E+03  0.12500000000E+03 0.  0.
         25    1    1    2    0    0 -0.13509239888E+03  0.17906546214E+02 -0.45235303903E+02  0.19037287977E+03  0.12500000000E+03 0.  0.
         25    1    1    2    0    0  0.21862639079E+02  0.61698934574E+01 -0.10593998996E+02  0.12748833432E+03  0.12500000000E+03 0.  0.
</event>
<event>
 5    0  0.5626800E-005  0.3781510E+03  0.7546771E-02  0.1051619E+00
         21   -1    0    0  502  501  0.00000000000E+00  0.00000000000E+00  0.37222047419E+03  0.37222047419E+03  0.00000000000E+00 0. -1.
         21   -1    0    0  501  502 -0.00000000000E+00 -0.00000000000E+00 -0.38417607025E+03  0.38417607025E+03  0.00000000000E+00 0. -1.
         25    1    1    2    0    0  0.10943580430E+03  0.13567756108E+03  0.15585679327E+03  0.26514323648E+03  0.12500000000E+03 0.  0.
         25    1    1    2    0    0 -0.88280483689E+01  0.89100742745E+02  0.23143224387E+02  0.15549111110E+03  0.12500000000E+03 0.  0.
         25    1    1    2    0    0 -0.10060775593E+03 -0.22477830383E+03 -0.19095561372E+03  0.33576219685E+03  0.12500000000E+03 0.  0.
</event>
<event>
 5    0  0.5626800E-005  0.4098761E+03  0.7546771E-02  0.1040413E+00
         21   -1    0    0  502  501  0.00000000000E+00  0.00000000000E+00  0.13239695801E+03  0.13239695801E+03  0.00000000000E+00 0.  1.
         21   -1    0    0  501  502 -0.00000000000E+00 -0.00000000000E+00 -0.12688995451E+04  0.12688995451E+04  0.00000000000E+00 0.  1.
         25    1    1    2    0    0  0.14011569294E+03 -0.22844515647E+03 -0.17369040263E+03  0.34294744916E+03  0.12500000000E+03 0.  0.
         25    1    1    2    0    0 -0.73521378774E+02  0.53817339571E+02 -0.67831825219E+03  0.69573152180E+03  0.12500000000E+03 0.  0.
         25    1    1    2    0    0 -0.66594314162E+02  0.17462781690E+03 -0.28449393227E+03  0.36261753214E+03  0.12500000000E+03 0.  0.
</event>
<event>
 5    0  0.5626800E-005  0.2665723E+03  0.7546771E-02  0.1103258E+00
         21   -1    0    0  502  501  0.00000000000E+00  0.00000000000E+00  0.11395168061E+04  0.11395168061E+04  0.00000000000E+00 0.  1.
         21   -1    0    0  501  502 -0.00000000000E+00 -0.00000000000E+00 -0.62360477597E+02  0.62360477597E+02  0.00000000000E+00 0. -1.
         25    1    1    2    0    0 -0.21432554915E+02  0.14813531185E+03  0.46490755478E+03  0.50415023507E+03  0.12500000000E+03 0.  0.
         25    1    1    2    0    0 -0.10143613846E+02 -0.14751425305E+03  0.45430220686E+03  0.49384090850E+03  0.12500000000E+03 0.  0.
         25    1    1    2    0    0  0.31576168761E+02 -0.62105879352E+00  0.15794656682E+03  0.20388614008E+03  0.12500000000E+03 0.  0.
</event>
<event>
 5    0  0.6104082E-005  0.2830020E+03  0.7546771E-02  0.1094061E+00
         21   -1    0    0  502  501  0.00000000000E+00  0.00000000000E+00  0.74698829041E+03  0.74698829041E+03  0.00000000000E+00 0.  1.
         21   -1    0    0  501  502 -0.00000000000E+00 -0.00000000000E+00 -0.10721739017E+03  0.10721739017E+03  0.00000000000E+00 0.  1.
         25    1    1    2    0    0 -0.86703431365E+02  0.62913423359E+02  0.23333260807E+03  0.28556030858E+03  0.12500000000E+03 0.  0.
         25    1    1    2    0    0 -0.90746335826E+02 -0.64132581070E+02  0.25120374843E+03  0.30178835075E+03  0.12500000000E+03 0.  0.
         25    1    1    2    0    0  0.17744976719E+03  0.12191577107E+01  0.15523454373E+03  0.26685702125E+03  0.12500000000E+03 0.  0.
</event>
<event>
 5    0  0.5626800E-005  0.2571891E+03  0.7546771E-02  0.1108844E+00
         21   -1    0    0  502  501  0.00000000000E+00  0.00000000000E+00  0.14597458718E+03  0.14597458718E+03  0.00000000000E+00 0.  1.
         21   -1    0    0  501  502 -0.00000000000E+00 -0.00000000000E+00 -0.45313539553E+03  0.45313539553E+03  0.00000000000E+00 0.  1.
         25    1    1    2    0    0  0.57979309900E+02  0.21279021527E+02 -0.58003223509E+02  0.15100917545E+03  0.12500000000E+03 0.  0.
         25    1    1    2    0    0 -0.11402673746E+03  0.88632252426E+02 -0.16901744730E+03  0.25504836898E+03  0.12500000000E+03 0.  0.
         25    1    1    2    0    0  0.56047427562E+02 -0.10991127395E+03 -0.80140137540E+02  0.19305243827E+03  0.12500000000E+03 0.  0.
</event>
<event>
 5    0  0.5626800E-005  0.2257570E+03  0.7546771E-02  0.1129662E+00
         21   -1    0    0  502  501  0.00000000000E+00  0.00000000000E+00  0.13888804586E+03  0.13888804586E+03  0.00000000000E+00 0.  1.
         21   -1    0    0  501  502 -0.00000000000E+00 -0.00000000000E+00 -0.36695908748E+03  0.36695908748E+03  0.00000000000E+00 0.  1.
         25    1    1    2    0    0 -0.22175998235E+02 -0.12614638905E+02 -0.12892708499E+02  0.12822685345E+03  0.12500000000E+03 0.  0.
         25    1    1    2    0    0 -0.44290687022E+02 -0.66071583764E+02 -0.10926880364E+03  0.18409723134E+03  0.12500000000E+03 0.  0.
         25    1    1    2    0    0  0.66466685256E+02  0.78686222669E+02 -0.10590952948E+03  0.19352304855E+03  0.12500000000E+03 0.  0.
</event>
<event>
 5    0  0.5899610E-005  0.2727470E+03  0.7546771E-02  0.1099718E+00
         21   -1    0    0  502  501  0.00000000000E+00  0.00000000000E+00  0.21213783867E+03  0.21213783867E+03  0.00000000000E+00 0. -1.
         21   -1    0    0  501  502 -0.00000000000E+00 -0.00000000000E+00 -0.35067248332E+03  0.35067248332E+03  0.00000000000E+00 0. -1.
         25    1    1    2    0    0 -0.68604916738E+02 -0.34829661592E+02  0.28985813045E+02  0.14961589917E+03  0.12500000000E+03 0.  0.
         25    1    1    2    0    0  0.46718871639E+01 -0.13567397090E+02 -0.22186199343E+03  0.25505616033E+03  0.12500000000E+03 0.  0.
         25    1    1    2    0    0  0.63933029574E+02  0.48397058682E+02  0.54341535723E+02  0.15813826249E+03  0.12500000000E+03 0.  0.
</event>
<event>
 5    0  0.5626800E-005  0.3746964E+03  0.7546771E-02  0.1052912E+00
         21   -1    0    0  502  501  0.00000000000E+00  0.00000000000E+00  0.36781657355E+04  0.36781657355E+04  0.00000000000E+00 0.  1.
         21   -1    0    0  501  502 -0.00000000000E+00 -0.00000000000E+00 -0.38170483541E+02  0.38170483541E+02  0.00000000000E+00 0.  1.
         25    1    1    2    0    0  0.43984542882E+00 -0.17955223731E+03  0.22937332059E+04  0.23041432723E+04  0.12500000000E+03 0.  0.
         25    1    1    2    0    0  0.49375741751E+02  0.12672763220E+03  0.27537766951E+03  0.33159571394E+03  0.12500000000E+03 0.  0.
         25    1    1    2    0    0 -0.49815587179E+02  0.52824605114E+02  0.10708843765E+04  0.10805972328E+04  0.12500000000E+03 0.  0.
</event>
<event>
 5    0  0.5626800E-005  0.2214048E+03  0.7546771E-02  0.1132840E+00
         21   -1    0    0  502  501  0.00000000000E+00  0.00000000000E+00  0.18140849885E+03  0.18140849885E+03  0.00000000000E+00 0.  1.
         21   -1    0    0  501  502 -0.00000000000E+00 -0.00000000000E+00 -0.27021935783E+03  0.27021935783E+03  0.00000000000E+00 0.  1.
         25    1    1    2    0    0  0.51340710657E+02 -0.34384860332E+02 -0.77873074967E+02  0.15971037222E+03  0.12500000000E+03 0.  0.
         25    1    1    2    0    0 -0.43567603660E+02 -0.39999799199E+02 -0.38766314001E+02  0.14361736359E+03  0.12500000000E+03 0.  0.
         25    1    1    2    0    0 -0.77731069971E+01  0.74384659531E+02  0.27828529996E+02  0.14830012086E+03  0.12500000000E+03 0.  0.
</event>
<event>
 5    0  0.5626800E-005  0.3203978E+03  0.7546771E-02  0.1075466E+00
         21   -1    0    0  502  501  0.00000000000E+00  0.00000000000E+00  0.67386384224E+02  0.67386384224E+02  0.00000000000E+00 0.  1.
         21   -1    0    0  501  502 -0.00000000000E+00 -0.00000000000E+00 -0.15233757252E+04  0.15233757252E+04  0.00000000000E+00 0.  1.
         25    1    1    2    0    0 -0.31079134549E+02 -0.94739239438E+01 -0.27645078306E+02  0.13207921182E+03  0.12500000000E+03 0.  0.
         25    1    1    2    0    0 -0.10942678246E+02 -0.68135612561E+02 -0.71293737318E+03  0.72709483700E+03  0.12500000000E+03 0.  0.
         25    1    1    2    0    0  0.42021812795E+02  0.77609536505E+02 -0.71540688953E+03  0.73158806066E+03  0.12500000000E+03 0.  0.
</event>
<event>
 5    0  0.5626800E-005  0.2679410E+03  0.7546771E-02  0.1102464E+00
         21   -1    0    0  502  501  0.00000000000E+00  0.00000000000E+00  0.23809677879E+03  0.23809677879E+03  0.00000000000E+00 0. -1.
         21   -1    0    0  501  502 -0.00000000000E+00 -0.00000000000E+00 -0.30152604643E+03  0.30152604643E+03  0.00000000000E+00 0. -1.
         25    1    1    2    0    0 -0.59346916156E+02  0.13702326987E+01 -0.14247772414E+03  0.19861731010E+03  0.12500000000E+03 0.  0.
         25    1    1    2    0    0  0.85228167151E+02 -0.31171229180E+02  0.12847427040E+03  0.20091322545E+03  0.12500000000E+03 0.  0.
         25    1    1    2    0    0 -0.25881250996E+02  0.29800996481E+02 -0.49425813902E+02  0.14009228967E+03  0.12500000000E+03 0.  0.
</event>
<event>
 5    0  0.5626800E-005  0.2240589E+03  0.7546771E-02  0.1130893E+00
         21   -1    0    0  502  501  0.00000000000E+00  0.00000000000E+00  0.13016652216E+03  0.13016652216E+03  0.00000000000E+00 0.  1.
         21   -1    0    0  501  502 -0.00000000000E+00 -0.00000000000E+00 -0.38567833246E+03  0.38567833246E+03  0.00000000000E+00 0.  1.
         25    1    1    2    0    0  0.10209068455E+03  0.23861666641E+02 -0.10759610317E+03  0.19543236279E+03  0.12500000000E+03 0.  0.
         25    1    1    2    0    0 -0.94920542388E+02 -0.30291813976E+01 -0.89281590233E+02  0.18059703115E+03  0.12500000000E+03 0.  0.
         25    1    1    2    0    0 -0.71701421586E+01 -0.20832485244E+02 -0.58634116894E+02  0.13981546068E+03  0.12500000000E+03 0.  0.
</event>
<event>
 5    0  0.5626800E-005  0.6181629E+03  0.7546771E-02  0.9868424E-01
         21   -1    0    0  502  501  0.00000000000E+00  0.00000000000E+00  0.48640351347E+03  0.48640351347E+03  0.00000000000E+00 0.  1.
         21   -1    0    0  501  502 -0.00000000000E+00 -0.00000000000E+00 -0.78561396076E+03  0.78561396076E+03  0.00000000000E+00 0. -1.
         25    1    1    2    0    0 -0.16969390777E+03  0.43162504083E+03  0.49061046094E+02  0.48283349558E+03  0.12500000000E+03 0.  0.
         25    1    1    2    0    0 -0.22793506543E+02 -0.82882274316E+02 -0.33921886232E+03  0.37159581791E+03  0.12500000000E+03 0.  0.
         25    1    1    2    0    0  0.19248741431E+03 -0.34874276651E+03 -0.90526310586E+01  0.41758816074E+03  0.12500000000E+03 0.  0.
</event>
<event>
 5    0  0.5626800E-005  0.3317066E+03  0.7546771E-02  0.1070384E+00
         21   -1    0    0  502  501  0.00000000000E+00  0.00000000000E+00  0.23722334760E+03  0.23722334760E+03  0.00000000000E+00 0.  1.
         21   -1    0    0  501  502 -0.00000000000E+00 -0.00000000000E+00 -0.46382151336E+03  0.46382151336E+03  0.00000000000E+00 0.  1.
         25    1    1    2    0    0 -0.37257564478E+02 -0.16056773600E+03 -0.53556436640E+02  0.21368999944E+03  0.12500000000E+03 0.  0.
         25    1    1    2    0    0  0.12383206318E+03  0.20492706435E+03 -0.18674439386E+03  0.32837166475E+03  0.12500000000E+03 0.  0.
         25    1    1    2    0    0 -0.86574498697E+02 -0.44359328346E+02  0.13702664738E+02  0.15898319678E+03  0.12500000000E+03 0.  0.
</event>
<event>
 5    0  0.5626800E-005  0.2968495E+03  0.7546771E-02  0.1086826E+00
         21   -1    0    0  502  501  0.00000000000E+00  0.00000000000E+00  0.27956938463E+03  0.27956938463E+03  0.00000000000E+00 0. -1.
         21   -1    0    0  501  502 -0.00000000000E+00 -0.00000000000E+00 -0.31519764215E+03  0.31519764215E+03  0.00000000000E+00 0. -1.
         25    1    1    2    0    0  0.20721182481E+02  0.86902984956E+02 -0.17070521033E+03  0.22966663892E+03  0.12500000000E+03 0.  0.
         25    1    1    2    0    0 -0.80459972957E+00 -0.89798358124E+02  0.17432376688E+03  0.23254713114E+03  0.12500000000E+03 0.  0.
         25    1    1    2    0    0 -0.19916582751E+02  0.28953731681E+01 -0.39246814071E+02  0.13255325673E+03  0.12500000000E+03 0.  0.
</event>
<event>
 5    0  0.5626800E-005  0.2287198E+03  0.7546771E-02  0.1127544E+00
         21   -1    0    0  502  501  0.00000000000E+00  0.00000000000E+00  0.27074394625E+03  0.27074394625E+03  0.00000000000E+00 0.  1.
         21   -1    0    0  501  502 -0.00000000000E+00 -0.00000000000E+00 -0.19321859738E+03  0.19321859738E+03  0.00000000000E+00 0.  1.
         25    1    1    2    0    0 -0.75044957002E+01 -0.11606574114E+02 -0.39127125147E+02  0.13170786590E+03  0.12500000000E+03 0.  0.
         25    1    1    2    0    0  0.28361485201E+02 -0.21516497499E+02 -0.32277351723E+02  0.13391848618E+03  0.12500000000E+03 0.  0.
         25    1    1    2    0    0 -0.20856989501E+02  0.33123071614E+02  0.14892982573E+03  0.19833619155E+03  0.12500000000E+03 0.  0.
</event>
<event>
 5    0  0.5626800E-005  0.4170417E+03  0.7546771E-02  0.1038033E+00
         21   -1    0    0  502  501  0.00000000000E+00  0.00000000000E+00  0.74660555912E+03  0.74660555912E+03  0.00000000000E+00 0. -1.
         21   -1    0    0  501  502 -0.00000000000E+00 -0.00000000000E+00 -0.23295264582E+03  0.23295264582E+03  0.00000000000E+00 0. -1.
         25    1    1    2    0    0  0.72756673663E+02 -0.24579600092E+03  0.12841826553E+02  0.28548050746E+03  0.12500000000E+03 0.  0.
         25    1    1    2    0    0 -0.12303684771E+03  0.80214841423E+02  0.56221208442E+02  0.20089378029E+03  0.12500000000E+03 0.  0.
         25    1    1    2    0    0  0.50280174046E+02  0.16558115950E+03  0.44458987831E+03  0.49318391719E+03  0.12500000000E+03 0.  0.
</event>
<event>
 5    0  0.5626800E-005  0.6071338E+03  0.7546771E-02  0.9890715E-01
         21   -1    0    0  502  501  0.00000000000E+00  0.00000000000E+00  0.91859152473E+03  0.91859152473E+03  0.00000000000E+00 0.  1.
         21   -1    0    0  501  502 -0.00000000000E+00 -0.00000000000E+00 -0.40127893236E+03  0.40127893236E+03  0.00000000000E+00 0.  1.
         25    1    1    2    0    0 -0.24377159328E+03 -0.70086302375E+02  0.13856208082E+03  0.31489860227E+03  0.12500000000E+03 0.  0.
         25    1    1    2    0    0  0.44417404683E+03 -0.10638747036E+03  0.49775981420E+03  0.68702162292E+03  0.12500000000E+03 0.  0.
         25    1    1    2    0    0 -0.20040245355E+03  0.17647377273E+03 -0.11900930265E+03  0.31795023191E+03  0.12500000000E+03 0.  0.
</event>
<event>
 5    0  0.5626800E-005  0.3237341E+03  0.7546771E-02  0.1073943E+00
         21   -1    0    0  502  501  0.00000000000E+00  0.00000000000E+00  0.49076135366E+03  0.49076135366E+03  0.00000000000E+00 0. -1.
         21   -1    0    0  501  502 -0.00000000000E+00 -0.00000000000E+00 -0.21355338015E+03  0.21355338015E+03  0.00000000000E+00 0. -1.
         25    1    1    2    0    0 -0.21444952525E+02  0.68646907056E+02  0.30163319228E+03  0.33433496156E+03  0.12500000000E+03 0.  0.
         25    1    1    2    0    0 -0.95526990479E+02  0.42837120678E+02  0.74166702925E+01  0.16321896892E+03  0.12500000000E+03 0.  0.
         25    1    1    2    0    0  0.11697194300E+03 -0.11148402773E+03 -0.31841889062E+02  0.20676080332E+03  0.12500000000E+03 0.  0.
</event>
<event>
 5    0  0.5626800E-005  0.4143821E+03  0.7546771E-02  0.1038910E+00
         21   -1    0    0  502  501  0.00000000000E+00  0.00000000000E+00  0.63137838870E+03  0.63137838870E+03  0.00000000000E+00 0. -1.
         21   -1    0    0  501  502 -0.00000000000E+00 -0.00000000000E+00 -0.27196451851E+03  0.27196451851E+03  0.00000000000E+00 0. -1.
         25    1    1    2    0    0  0.11602468845E+03 -0.49561287103E+02  0.30943360516E+03  0.35678033229E+03  0.12500000000E+03 0.  0.
         25    1    1    2    0    0 -0.67451681962E+02 -0.18720676790E+03 -0.75627380946E+02  0.24686150793E+03  0.12500000000E+03 0.  0.
         25    1    1    2    0    0 -0.48573006491E+02  0.23676805501E+03  0.12560764598E+03  0.29970106700E+03  0.12500000000E+03 0.  0.
</event>
<event>
 5    0  0.5626800E-005  0.3956288E+03  0.7546771E-02  0.1045304E+00
         21   -1    0    0  502  501  0.00000000000E+00  0.00000000000E+00  0.19778340888E+03  0.19778340888E+03  0.00000000000E+00 0.  1.
         21   -1    0    0  501  502 -0.00000000000E+00 -0.00000000000E+00 -0.79138146412E+03  0.79138146412E+03  0.00000000000E+00 0.  1.
         25    1    1    2    0    0  0.17765099066E+02  0.10172599015E+03  0.52026008077E+02  0.17028059588E+03  0.12500000000E+03 0.  0.
         25    1    1    2    0    0 -0.10580167374E+03 -0.14019516160E+03 -0.77170907990E+02  0.22897385559E+03  0.12500000000E+03 0.  0.
         25    1    1    2    0    0  0.88036574676E+02  0.38469171450E+02 -0.56845315532E+03  0.58991042153E+03  0.12500000000E+03 0.  0.
</event>
<event>
 5    0  0.5626800E-005  0.2615872E+03  0.7546771E-02  0.1106193E+00
         21   -1    0    0  502  501  0.00000000000E+00  0.00000000000E+00  0.86732571034E+03  0.86732571034E+03  0.00000000000E+00 0. -1.
         21   -1    0    0  501  502 -0.00000000000E+00 -0.00000000000E+00 -0.78895250497E+02  0.78895250497E+02  0.00000000000E+00 0. -1.
         25    1    1    2    0    0  0.14861095449E+03  0.18271700781E+02  0.34968624241E+03  0.40040546821E+03  0.12500000000E+03 0.  0.
         25    1    1    2    0    0 -0.21148407898E+02 -0.53543989769E+02  0.23752620605E+03  0.27451395695E+03  0.12500000000E+03 0.  0.
         25    1    1    2    0    0 -0.12746254660E+03  0.35272288989E+02  0.20121801138E+03  0.27130153567E+03  0.12500000000E+03 0.  0.
</event>
<event>
 5    0  0.5846487E-005  0.3959141E+03  0.7546771E-02  0.1045204E+00
         21   -1    0    0  502  501  0.00000000000E+00  0.00000000000E+00  0.26785806641E+03  0.26785806641E+03  0.00000000000E+00 0. -1.
         21   -1    0    0  501  502 -0.00000000000E+00 -0.00000000000E+00 -0.58519042659E+03  0.58519042659E+03  0.00000000000E+00 0. -1.
         25    1    1    2    0    0  0.16515528465E+03 -0.11916401733E+02 -0.12870881625E+03  0.24415001138E+03  0.12500000000E+03 0.  0.
         25    1    1    2    0    0 -0.79386414355E+02  0.18027365008E+01  0.16638612250E+03  0.22274378645E+03  0.12500000000E+03 0.  0.
         25    1    1    2    0    0 -0.85768870290E+02  0.10113665232E+02 -0.35500966644E+03  0.38615469516E+03  0.12500000000E+03 0.  0.
</event>
<event>
 5    0  0.5626800E-005  0.2769701E+03  0.7546771E-02  0.1097355E+00
         21   -1    0    0  502  501  0.00000000000E+00  0.00000000000E+00  0.92526776184E+02  0.92526776184E+02  0.00000000000E+00 0.  1.
         21   -1    0    0  501  502 -0.00000000000E+00 -0.00000000000E+00 -0.82908352783E+03  0.82908352783E+03  0.00000000000E+00 0.  1.
         25    1    1    2    0    0  0.11456373294E+03  0.15062466303E+03 -0.35363118682E+03  0.42011028827E+03  0.12500000000E+03 0.  0.
         25    1    1    2    0    0 -0.38399624709E+02 -0.38493858559E+02 -0.19773230342E+03  0.24016530170E+03  0.12500000000E+03 0.  0.
         25    1    1    2    0    0 -0.76164108233E+02 -0.11213080447E+03 -0.18519326141E+03  0.26133471405E+03  0.12500000000E+03 0.  0.
</event>
<event>
 5    0  0.5626800E-005  0.2702511E+03  0.7546771E-02  0.1101136E+00
         21   -1    0    0  502  501  0.00000000000E+00  0.00000000000E+00  0.11975347578E+03  0.11975347578E+03  0.00000000000E+00 0.  1.
         21   -1    0    0  501  502 -0.00000000000E+00 -0.00000000000E+00 -0.60988338089E+03  0.60988338089E+03  0.00000000000E+00 0.  1.
         25    1    1    2    0    0  0.97794719194E+02  0.63879960799E+02 -0.27843016011E+03  0.32679169291E+03  0.12500000000E+03 0.  0.
         25    1    1    2    0    0  0.94894299247E+01  0.38476603241E+02 -0.15020480018E+03  0.19939152508E+03  0.12500000000E+03 0.  0.
         25    1    1    2    0    0 -0.10728414912E+03 -0.10235656404E+03 -0.61494944814E+02  0.20345363868E+03  0.12500000000E+03 0.  0.
</event>
<event>
 5    0  0.5626800E-005  0.4970702E+03  0.7546771E-02  0.1014546E+00
         21   -1    0    0  502  501  0.00000000000E+00  0.00000000000E+00  0.14391629380E+04  0.14391629380E+04  0.00000000000E+00 0. -1.
         21   -1    0    0  501  502 -0.00000000000E+00 -0.00000000000E+00 -0.17168226303E+03  0.17168226303E+03  0.00000000000E+00 0. -1.
         25    1    1    2    0    0 -0.29803164666E+03  0.30856578852E+03  0.47454950043E+03  0.65181127377E+03  0.12500000000E+03 0.  0.
         25    1    1    2    0    0  0.10481651949E+03 -0.13015699036E+02  0.21206612841E+03  0.26786741870E+03  0.12500000000E+03 0.  0.
         25    1    1    2    0    0  0.19321512717E+03 -0.29555008948E+03  0.58086504617E+03  0.69116650861E+03  0.12500000000E+03 0.  0.
</event>
<event>
 5    0  0.5626800E-005  0.2643340E+03  0.7546771E-02  0.1104567E+00
         21   -1    0    0  502  501  0.00000000000E+00  0.00000000000E+00  0.40480324396E+03  0.40480324396E+03  0.00000000000E+00 0.  1.
         21   -1    0    0  501  502 -0.00000000000E+00 -0.00000000000E+00 -0.17260840046E+03  0.17260840046E+03  0.00000000000E+00 0.  1.
         25    1    1    2    0    0 -0.90528758650E+01  0.86199177336E+02  0.11762151362E+03  0.19228123466E+03  0.12500000000E+03 0.  0.
         25    1    1    2    0    0  0.19133284003E+02  0.73866523722E+02  0.10749516066E+03  0.18166605475E+03  0.12500000000E+03 0.  0.
         25    1    1    2    0    0 -0.10080408138E+02 -0.16006570106E+03  0.70781692220E+01  0.20346435502E+03  0.12500000000E+03 0.  0.
</event>
<event>
 5    0  0.5626800E-005  0.1984140E+03  0.7546771E-02  0.1151084E+00
         21   -1    0    0  502  501  0.00000000000E+00  0.00000000000E+00  0.22727781199E+03  0.22727781199E+03  0.00000000000E+00 0.  1.
         21   -1    0    0  501  502 -0.00000000000E+00 -0.00000000000E+00 -0.17321584497E+03  0.17321584497E+03  0.00000000000E+00 0.  1.
         25    1    1    2    0    0  0.47343649280E+00  0.13167797966E+01 -0.31580018576E+02  0.12893508299E+03  0.12500000000E+03 0.  0.
         25    1    1    2    0    0 -0.24034500677E+01  0.17146627250E+02  0.15819072811E+02  0.12718107746E+03  0.12500000000E+03 0.  0.
         25    1    1    2    0    0  0.19300135749E+01 -0.18463407046E+02  0.69822912782E+02  0.14437749652E+03  0.12500000000E+03 0.  0.
</event>
<event>
 5    0  0.5626800E-005  0.4819647E+03  0.7546771E-02  0.1018597E+00
         21   -1    0    0  502  501  0.00000000000E+00  0.00000000000E+00  0.84063778412E+03  0.84063778412E+03  0.00000000000E+00 0. -1.
         21   -1    0    0  501  502 -0.00000000000E+00 -0.00000000000E+00 -0.27632586587E+03  0.27632586587E+03  0.00000000000E+00 0. -1.
         25    1    1    2    0    0  0.12225226693E+03 -0.14991020100E+02 -0.48818564870E+02  0.18214993749E+03  0.12500000000E+03 0.  0.
         25    1    1    2    0    0 -0.15820386020E+03  0.31622766646E+03  0.36609059868E+03  0.52409514867E+03  0.12500000000E+03 0.  0.
         25    1    1    2    0    0  0.35951593272E+02 -0.30123664636E+03  0.24703988445E+03  0.41071856383E+03  0.12500000000E+03 0.  0.
</event>
<event>
 5    0  0.5626800E-005  0.4114837E+03  0.7546771E-02  0.1039874E+00
         21   -1    0    0  502  501  0.00000000000E+00  0.00000000000E+00  0.19085062953E+03  0.19085062953E+03  0.00000000000E+00 0. -1.
         21   -1    0    0  501  502 -0.00000000000E+00 -0.00000000000E+00 -0.88718005010E+03  0.88718005010E+03  0.00000000000E+00 0. -1.
         25    1    1    2    0    0 -0.65571722477E+02 -0.68122635124E+02 -0.63859913906E+02  0.16924370833E+03  0.12500000000E+03 0.  0.
         25    1    1    2    0    0  0.22160786557E+03  0.26736221977E+03 -0.38618286402E+03  0.53418611654E+03  0.12500000000E+03 0.  0.
         25    1    1    2    0    0 -0.15603614309E+03 -0.19923958465E+03 -0.24628664265E+03  0.37460085476E+03  0.12500000000E+03 0.  0.
</event>
<event>
 5    0  0.5626800E-005  0.2942070E+03  0.7546771E-02  0.1088173E+00
         21   -1    0    0  502  501  0.00000000000E+00  0.00000000000E+00  0.13931044261E+04  0.13931044261E+04  0.00000000000E+00 0. -1.
         21   -1    0    0  501  502 -0.00000000000E+00 -0.00000000000E+00 -0.62133005440E+02  0.62133005440E+02  0.00000000000E+00 0. -1.
         25    1    1    2    0    0  0.13067932674E+03  0.40870045688E+02  0.22162264186E+03  0.28894470484E+03  0.12500000000E+03 0.  0.
         25    1    1    2    0    0 -0.72467652904E+02  0.84559534391E+02  0.41862473688E+03  0.45085867620E+03  0.12500000000E+03 0.  0.
         25    1    1    2    0    0 -0.58211673837E+02 -0.12542958008E+03  0.69072404195E+03  0.71543405053E+03  0.12500000000E+03 0.  0.
</event>
<event>
 5    0  0.5959175E-005  0.3880011E+03  0.7546771E-02  0.1048015E+00
         21   -1    0    0  502  501  0.00000000000E+00  0.00000000000E+00  0.21650267032E+03  0.21650267032E+03  0.00000000000E+00 0.  1.
         21   -1    0    0  501  502 -0.00000000000E+00 -0.00000000000E+00 -0.69534888715E+03  0.69534888715E+03  0.00000000000E+00 0.  1.
         25    1    1    2    0    0  0.21055830734E+02  0.16259023754E+03  0.23501377582E+01  0.20617821539E+03  0.12500000000E+03 0.  0.
         25    1    1    2    0    0  0.21650336632E+02 -0.22764009354E+03 -0.71369865050E+02  0.27019882846E+03  0.12500000000E+03 0.  0.
         25    1    1    2    0    0 -0.42706167366E+02  0.65049855999E+02 -0.40982648954E+03  0.43547451363E+03  0.12500000000E+03 0.  0.
</event>
<event>
 5    0  0.5626800E-005  0.3002892E+03  0.7546771E-02  0.1085096E+00
         21   -1    0    0  502  501  0.00000000000E+00  0.00000000000E+00  0.71124985879E+02  0.71124985879E+02  0.00000000000E+00 0.  1.
         21   -1    0    0  501  502 -0.00000000000E+00 -0.00000000000E+00 -0.12678189857E+04  0.12678189857E+04  0.00000000000E+00 0.  1.
         25    1    1    2    0    0 -0.89757894884E+01 -0.10246063540E+02 -0.10795069238E+03  0.16572235396E+03  0.12500000000E+03 0.  0.
         25    1    1    2    0    0  0.94466080754E+02  0.15879097319E+03 -0.61295676839E+03  0.65228783025E+03  0.12500000000E+03 0.  0.
         25    1    1    2    0    0 -0.85490291266E+02 -0.14854490964E+03 -0.47578653903E+03  0.52093378735E+03  0.12500000000E+03 0.  0.
</event>
<event>
 5    0  0.5626800E-005  0.3063153E+03  0.7546771E-02  0.1082126E+00
         21   -1    0    0  502  501  0.00000000000E+00  0.00000000000E+00  0.18570333441E+04  0.18570333441E+04  0.00000000000E+00 0.  1.
         21   -1    0    0  501  502 -0.00000000000E+00 -0.00000000000E+00 -0.50526315319E+02  0.50526315319E+02  0.00000000000E+00 0.  1.
         25    1    1    2    0    0  0.85070641536E+02 -0.29727163767E+02  0.32360882073E+03  0.35842486963E+03  0.12500000000E+03 0.  0.
         25    1    1    2    0    0  0.88671816415E+02 -0.10043019142E+03  0.82633251267E+03  0.84640376646E+03  0.12500000000E+03 0.  0.
         25    1    1    2    0    0 -0.17374245795E+03  0.13015735519E+03  0.65656569540E+03  0.70273102335E+03  0.12500000000E+03 0.  0.
</event>
<event>
 5    0  0.5626800E-005  0.6428554E+03  0.7546771E-02  0.9820279E-01
         21   -1    0    0  502  501  0.00000000000E+00  0.00000000000E+00  0.30173270222E+03  0.30173270222E+03  0.00000000000E+00 0.  1.
         21   -1    0    0  501  502 -0.00000000000E+00 -0.00000000000E+00 -0.13696331022E+04  0.13696331022E+04  0.00000000000E+00 0.  1.
         25    1    1    2    0    0 -0.17212874078E+03  0.51672978756E+03 -0.47472273348E+03  0.73322892089E+03  0.12500000000E+03 0.  0.
         25    1    1    2    0    0  0.20365014963E+03 -0.24305529529E+03 -0.92515279814E+02  0.35317607084E+03  0.12500000000E+03 0.  0.
         25    1    1    2    0    0 -0.31521408855E+02 -0.27367449227E+03 -0.50066238664E+03  0.58496081264E+03  0.12500000000E+03 0.  0.
</event>
<event>
 5    0  0.5626800E-005  0.5578570E+03  0.7546771E-02  0.9996915E-01
         21   -1    0    0  502  501  0.00000000000E+00  0.00000000000E+00  0.13813016081E+03  0.13813016081E+03  0.00000000000E+00 0.  1.
         21   -1    0    0  501  502 -0.00000000000E+00 -0.00000000000E+00 -0.22529796054E+04  0.22529796054E+04  0.00000000000E+00 0.  1.
         25    1    1    2    0    0  0.20027575091E+02  0.20200351318E+03 -0.68317609407E+03  0.72357521973E+03  0.12500000000E+03 0.  0.
         25    1    1    2    0    0 -0.73958808872E+02 -0.31312673239E+03 -0.14503073394E+04  0.14908167676E+04  0.12500000000E+03 0.  0.
         25    1    1    2    0    0  0.53931233781E+02  0.11112321921E+03  0.18633988869E+02  0.17671777886E+03  0.12500000000E+03 0.  0.
</event>
<event>
 5    0  0.6745531E-005  0.6347298E+03  0.7546771E-02  0.9835862E-01
         21   -1    0    0  502  501  0.00000000000E+00  0.00000000000E+00  0.14479598100E+04  0.14479598100E+04  0.00000000000E+00 0. -1.
         21   -1    0    0  501  502 -0.00000000000E+00 -0.00000000000E+00 -0.27824106013E+03  0.27824106013E+03  0.00000000000E+00 0. -1.
         25    1    1    2    0    0 -0.53204392601E+02 -0.44938675167E+03  0.46741991485E+03  0.66248436718E+03  0.12500000000E+03 0.  0.
         25    1    1    2    0    0 -0.14179692197E+03  0.29049320783E+03  0.70192842924E+03  0.78282896641E+03  0.12500000000E+03 0.  0.
         25    1    1    2    0    0  0.19500131457E+03  0.15889354384E+03  0.37040574850E+00  0.28088753649E+03  0.12500000000E+03 0.  0.
</event>
<event>
 5    0  0.5626800E-005  0.3045326E+03  0.7546771E-02  0.1082997E+00
         21   -1    0    0  502  501  0.00000000000E+00  0.00000000000E+00  0.62011728160E+03  0.62011728160E+03  0.00000000000E+00 0. -1.
         21   -1    0    0  501  502 -0.00000000000E+00 -0.00000000000E+00 -0.14955250995E+03  0.14955250995E+03  0.00000000000E+00 0. -1.
         25    1    1    2    0    0 -0.98992839235E+02  0.52620430251E+02  0.62110018457E+02  0.17902833936E+03  0.12500000000E+03 0.  0.
         25    1    1    2    0    0  0.10680225577E+03  0.93716212783E+02  0.33448727670E+03  0.38431261839E+03  0.12500000000E+03 0.  0.
         25    1    1    2    0    0 -0.78094165374E+01 -0.14633664303E+03  0.73967476488E+02  0.20632883380E+03  0.12500000000E+03 0.  0.
</event>
<event>
 5    0  0.5626800E-005  0.2517427E+03  0.7546771E-02  0.1112208E+00
         21   -1    0    0  502  501  0.00000000000E+00  0.00000000000E+00  0.14540317714E+04  0.14540317714E+04  0.00000000000E+00 0. -1.
         21   -1    0    0  501  502 -0.00000000000E+00 -0.00000000000E+00 -0.43585280067E+02  0.43585280067E+02  0.00000000000E+00 0. -1.
         25    1    1    2    0    0  0.15555480370E+02  0.59335984961E+01  0.28958297274E+03  0.31584882248E+03  0.12500000000E+03 0.  0.
         25    1    1    2    0    0 -0.14177422624E+03 -0.30568689670E+02  0.49580145225E+03  0.53148702342E+03  0.12500000000E+03 0.  0.
         25    1    1    2    0    0  0.12621874587E+03  0.24635091174E+02  0.62506206635E+03  0.65028120557E+03  0.12500000000E+03 0.  0.
</event>
<event>
 5    0  0.5626800E-005  0.2845255E+03  0.7546771E-02  0.1093243E+00
         21   -1    0    0  502  501  0.00000000000E+00  0.00000000000E+00  0.44536221395E+03  0.44536221395E+03  0.00000000000E+00 0.  1.
         21   -1    0    0  501  502 -0.00000000000E+00 -0.00000000000E+00 -0.18177282237E+03  0.18177282237E+03  0.00000000000E+00 0.  1.
         25    1    1    2    0    0 -0.10173425526E+03 -0.31567096032E+02  0.11119904845E+03  0.19833448671E+03  0.12500000000E+03 0.  0.
         25    1    1    2    0    0 -0.39586769577E+02 -0.10441095328E+03  0.75731028330E+02  0.18392647483E+03  0.12500000000E+03 0.  0.
         25    1    1    2    0    0  0.14132102483E+03  0.13597804931E+03  0.76659314803E+02  0.24487407478E+03  0.12500000000E+03 0.  0.
</event>
<event>
 5    0  0.5626800E-005  0.3712152E+03  0.7546771E-02  0.1054229E+00
         21   -1    0    0  502  501  0.00000000000E+00  0.00000000000E+00  0.14150888449E+03  0.14150888449E+03  0.00000000000E+00 0.  1.
         21   -1    0    0  501  502 -0.00000000000E+00 -0.00000000000E+00 -0.97379533131E+03  0.97379533131E+03  0.00000000000E+00 0.  1.
         25    1    1    2    0    0  0.12545029242E+03 -0.20829761786E+03 -0.47784043425E+03  0.55052897660E+03  0.12500000000E+03 0.  0.
         25    1    1    2    0    0  0.60504469461E+02  0.12637114948E+03 -0.88729076769E+02  0.20767355949E+03  0.12500000000E+03 0.  0.
         25    1    1    2    0    0 -0.18595476188E+03  0.81926468379E+02 -0.26571693580E+03  0.35710167972E+03  0.12500000000E+03 0.  0.
</event>
<event>
 5    0  0.5626800E-005  0.3706390E+03  0.7546771E-02  0.1054449E+00
         21   -1    0    0  502  501  0.00000000000E+00  0.00000000000E+00  0.73693009072E+02  0.73693009072E+02  0.00000000000E+00 0.  1.
         21   -1    0    0  501  502 -0.00000000000E+00 -0.00000000000E+00 -0.18641291124E+04  0.18641291124E+04  0.00000000000E+00 0.  1.
         25    1    1    2    0    0 -0.19390654243E+03  0.71699505296E+02 -0.82810018074E+03  0.86262128167E+03  0.12500000000E+03 0.  0.
         25    1    1    2    0    0  0.11866834040E+03 -0.21157620042E+03 -0.62447441100E+03  0.68149831518E+03  0.12500000000E+03 0.  0.
         25    1    1    2    0    0  0.75238202032E+02  0.13987669513E+03 -0.33786151164E+03  0.39370252467E+03  0.12500000000E+03 0.  0.
</event>
<event>
 5    0  0.5626800E-005  0.2500558E+03  0.7546771E-02  0.1113270E+00
         21   -1    0    0  502  501  0.00000000000E+00  0.00000000000E+00  0.31559151173E+03  0.31559151173E+03  0.00000000000E+00 0. -1.
         21   -1    0    0  501  502 -0.00000000000E+00 -0.00000000000E+00 -0.19812929761E+03  0.19812929761E+03  0.00000000000E+00 0. -1.
         25    1    1    2    0    0  0.86385199001E+02 -0.53938085569E+01  0.35204034334E+02  0.15606351210E+03  0.12500000000E+03 0.  0.
         25    1    1    2    0    0 -0.16874569860E+01 -0.62451569824E+02 -0.47213940569E+02  0.14750322799E+03  0.12500000000E+03 0.  0.
         25    1    1    2    0    0 -0.84697742015E+02  0.67845378381E+02  0.12947212035E+03  0.21015406924E+03  0.12500000000E+03 0.  0.
</event>
<event>
 5    0  0.5626800E-005  0.2831384E+03  0.7546771E-02  0.1093987E+00
         21   -1    0    0  502  501  0.00000000000E+00  0.00000000000E+00  0.49410199392E+03  0.49410199392E+03  0.00000000000E+00 0.  1.
         21   -1    0    0  501  502 -0.00000000000E+00 -0.00000000000E+00 -0.16224860721E+03  0.16224860721E+03  0.00000000000E+00 0.  1.
         25    1    1    2    0    0  0.44063841732E+02 -0.66883645606E+02  0.26352336982E+03  0.30246423035E+03  0.12500000000E+03 0.  0.
         25    1    1    2    0    0  0.26770858434E+01 -0.38849176084E+02 -0.56672139462E+02  0.14266448984E+03  0.12500000000E+03 0.  0.
         25    1    1    2    0    0 -0.46740927576E+02  0.10573282169E+03  0.12500215636E+03  0.21122188094E+03  0.12500000000E+03 0.  0.
</event>
<event>
 5    0  0.5626800E-005  0.3636282E+03  0.7546771E-02  0.1057156E+00
         21   -1    0    0  502  501  0.00000000000E+00  0.00000000000E+00  0.22292499027E+03  0.22292499027E+03  0.00000000000E+00 0.  1.
         21   -1    0    0  501  502 -0.00000000000E+00 -0.00000000000E+00 -0.59313872738E+03  0.59313872738E+03  0.00000000000E+00 0.  1.
         25    1    1    2    0    0  0.85629644096E+02 -0.20553469029E+03 -0.37345179299E+02  0.25806318466E+03  0.12500000000E+03 0.  0.
         25    1    1    2    0    0  0.43736217425E+02  0.20205582749E+03 -0.28136276232E+03  0.37084958967E+03  0.12500000000E+03 0.  0.
         25    1    1    2    0    0 -0.12936586152E+03  0.34788628030E+01 -0.51505795497E+02  0.18715094331E+03  0.12500000000E+03 0.  0.
</event>
<event>
 5    0  0.5626800E-005  0.2954378E+03  0.7546771E-02  0.1087544E+00
         21   -1    0    0  502  501  0.00000000000E+00  0.00000000000E+00  0.10377065673E+03  0.10377065673E+03  0.00000000000E+00 0.  1.
         21   -1    0    0  501  502 -0.00000000000E+00 -0.00000000000E+00 -0.84111901056E+03  0.84111901056E+03  0.00000000000E+00 0.  1.
         25    1    1    2    0    0 -0.54833062949E+01  0.41126045508E+02 -0.94814165669E+02  0.16228414673E+03  0.12500000000E+03 0.  0.
         25    1    1    2    0    0 -0.87443504662E+02 -0.13727608815E+03 -0.52849880181E+03  0.56694538926E+03  0.12500000000E+03 0.  0.
         25    1    1    2    0    0  0.92926810957E+02  0.96150042641E+02 -0.11403538635E+03  0.21566013131E+03  0.12500000000E+03 0.  0.
</event>
<event>
 5    0  0.5626800E-005  0.2368564E+03  0.7546771E-02  0.1121905E+00
         21   -1    0    0  502  501  0.00000000000E+00  0.00000000000E+00  0.53153590139E+03  0.53153590139E+03  0.00000000000E+00 0. -1.
         21   -1    0    0  501  502 -0.00000000000E+00 -0.00000000000E+00 -0.10554499154E+03  0.10554499154E+03  0.00000000000E+00 0. -1.
         25    1    1    2    0    0 -0.25099644324E+02  0.76266755233E+02  0.61578373348E+02  0.16082134859E+03  0.12500000000E+03 0.  0.
         25    1    1    2    0    0  0.67441508241E+02 -0.96781902476E+02  0.18396735735E+03  0.25176195553E+03  0.12500000000E+03 0.  0.
         25    1    1    2    0    0 -0.42341863917E+02  0.20515147243E+02  0.18044517915E+03  0.22449758882E+03  0.12500000000E+03 0.  0.
</event>
<event>
 5    0  0.6129374E-005  0.2770478E+03  0.7546771E-02  0.1097312E+00
         21   -1    0    0  502  501  0.00000000000E+00  0.00000000000E+00  0.31549362388E+03  0.31549362388E+03  0.00000000000E+00 0. -1.
         21   -1    0    0  501  502 -0.00000000000E+00 -0.00000000000E+00 -0.24328690196E+03  0.24328690196E+03  0.00000000000E+00 0. -1.
         25    1    1    2    0    0  0.12208936266E+03 -0.29421995931E+02  0.58181508156E+02  0.18649813460E+03  0.12500000000E+03 0.  0.
         25    1    1    2    0    0 -0.14208936989E+03 -0.14069047649E+02 -0.82834908058E+02  0.20706025483E+03  0.12500000000E+03 0.  0.
         25    1    1    2    0    0  0.20000007229E+02  0.43491043580E+02  0.96860121825E+02  0.16522213641E+03  0.12500000000E+03 0.  0.
</event>
<event>
 5    0  0.5626800E-005  0.2867255E+03  0.7546771E-02  0.1092071E+00
         21   -1    0    0  502  501  0.00000000000E+00  0.00000000000E+00  0.38507892573E+03  0.38507892573E+03  0.00000000000E+00 0. -1.
         21   -1    0    0  501  502 -0.00000000000E+00 -0.00000000000E+00 -0.21349267717E+03  0.21349267717E+03  0.00000000000E+00 0. -1.
         25    1    1    2    0    0 -0.35425357611E+02  0.94230304268E+02 -0.64647738749E+00  0.16049836179E+03  0.12500000000E+03 0.  0.
         25    1    1    2    0    0 -0.37684223233E+02 -0.18757190869E+03  0.11952716667E+03  0.25790514764E+03  0.12500000000E+03 0.  0.
         25    1    1    2    0    0  0.73109580844E+02  0.93341604418E+02  0.52705559275E+02  0.18016809347E+03  0.12500000000E+03 0.  0.
</event>
<event>
 5    0  0.5626800E-005  0.6004802E+03  0.7546771E-02  0.9904410E-01
         21   -1    0    0  502  501  0.00000000000E+00  0.00000000000E+00  0.42757605098E+03  0.42757605098E+03  0.00000000000E+00 0.  1.
         21   -1    0    0  501  502 -0.00000000000E+00 -0.00000000000E+00 -0.84330375645E+03  0.84330375645E+03  0.00000000000E+00 0.  1.
         25    1    1    2    0    0 -0.13481561456E+03 -0.40355708016E+03  0.17262571810E+03  0.47587625012E+03  0.12500000000E+03 0.  0.
         25    1    1    2    0    0  0.16491464384E+03  0.21433401463E+03 -0.26385622813E+03  0.39797112797E+03  0.12500000000E+03 0.  0.
         25    1    1    2    0    0 -0.30099029279E+02  0.18922306554E+03 -0.32449719544E+03  0.39703242934E+03  0.12500000000E+03 0.  0.
</event>
<event>
 5    0  0.5626800E-005  0.3963997E+03  0.7546771E-02  0.1045034E+00
         21   -1    0    0  502  501  0.00000000000E+00  0.00000000000E+00  0.99661714344E+03  0.99661714344E+03  0.00000000000E+00 0.  1.
         21   -1    0    0  501  502 -0.00000000000E+00 -0.00000000000E+00 -0.15766610068E+03  0.15766610068E+03  0.00000000000E+00 0.  1.
         25    1    1    2    0    0 -0.24526231771E+03 -0.99480600879E+01  0.60476486487E+03  0.66454353520E+03  0.12500000000E+03 0.  0.
         25    1    1    2    0    0  0.92530633812E+02 -0.60924998623E+02 -0.10656633507E+02  0.16736886654E+03  0.12500000000E+03 0.  0.
         25    1    1    2    0    0  0.15273168390E+03  0.70873058710E+02  0.24484281140E+03  0.32237084237E+03  0.12500000000E+03 0.  0.
</event>
<event>
 5    0  0.5626800E-005  0.2932680E+03  0.7546771E-02  0.1088655E+00
         21   -1    0    0  502  501  0.00000000000E+00  0.00000000000E+00  0.38612420588E+02  0.38612420588E+02  0.00000000000E+00 0.  1.
         21   -1    0    0  501  502 -0.00000000000E+00 -0.00000000000E+00 -0.22274210615E+04  0.22274210615E+04  0.00000000000E+00 0.  1.
         25    1    1    2    0    0 -0.89685808884E+02  0.28860401154E+02 -0.36945812215E+03  0.40124901382E+03  0.12500000000E+03 0.  0.
         25    1    1    2    0    0 -0.35617272948E+02  0.11402265910E+03 -0.98112614961E+03  0.99624458763E+03  0.12500000000E+03 0.  0.
         25    1    1    2    0    0  0.12530308183E+03 -0.14288306025E+03 -0.83822436912E+03  0.86853988061E+03  0.12500000000E+03 0.  0.
</event>
<event>
 5    0  0.5626800E-005  0.2631408E+03  0.7546771E-02  0.1105271E+00
         21   -1    0    0  502  501  0.00000000000E+00  0.00000000000E+00  0.12118253779E+04  0.12118253779E+04  0.00000000000E+00 0. -1.
         21   -1    0    0  501  502 -0.00000000000E+00 -0.00000000000E+00 -0.57139501339E+02  0.57139501339E+02  0.00000000000E+00 0. -1.
         25    1    1    2    0    0  0.14893787384E+02  0.16359222962E+01  0.54927826089E+03  0.56352116999E+03  0.12500000000E+03 0.  0.
         25    1    1    2    0    0 -0.13180574606E+03 -0.39511934571E+02  0.28632578740E+03  0.34138161080E+03  0.12500000000E+03 0.  0.
         25    1    1    2    0    0  0.11691195867E+03  0.37876012275E+02  0.31908182828E+03  0.36406209845E+03  0.12500000000E+03 0.  0.
</event>
<event>
 5    0  0.5626800E-005  0.2603665E+03  0.7546771E-02  0.1106923E+00
         21   -1    0    0  502  501  0.00000000000E+00  0.00000000000E+00  0.68948039117E+02  0.68948039117E+02  0.00000000000E+00 0.  1.
         21   -1    0    0  501  502 -0.00000000000E+00 -0.00000000000E+00 -0.98321464428E+03  0.98321464428E+03  0.00000000000E+00 0.  1.
         25    1    1    2    0    0 -0.37489667431E+02 -0.10398414785E+03 -0.24471984043E+03  0.29619415671E+03  0.12500000000E+03 0.  0.
         25    1    1    2    0    0  0.95593039932E+01  0.47746695315E+02 -0.56665579094E+03  0.58231856626E+03  0.12500000000E+03 0.  0.
         25    1    1    2    0    0  0.27930363438E+02  0.56237452538E+02 -0.10289097380E+03  0.17364996044E+03  0.12500000000E+03 0.  0.
</event>
<event>
 5    0  0.5626800E-005  0.3434460E+03  0.7546771E-02  0.1065338E+00
         21   -1    0    0  502  501  0.00000000000E+00  0.00000000000E+00  0.12820111585E+03  0.12820111585E+03  0.00000000000E+00 0. -1.
         21   -1    0    0  501  502 -0.00000000000E+00 -0.00000000000E+00 -0.92007896964E+03  0.92007896964E+03  0.00000000000E+00 0. -1.
         25    1    1    2    0    0  0.18928251181E+03 -0.17021243111E+03 -0.17553710285E+03  0.33352423519E+03  0.12500000000E+03 0.  0.
         25    1    1    2    0    0 -0.10212532021E+03  0.73893560072E+02 -0.35976014441E+03  0.40117602216E+03  0.12500000000E+03 0.  0.
         25    1    1    2    0    0 -0.87157191604E+02  0.96318871043E+02 -0.25658060653E+03  0.31357982814E+03  0.12500000000E+03 0.  0.
</event>
<event>
 5    0  0.5835290E-005  0.2812339E+03  0.7546771E-02  0.1095017E+00
         21   -1    0    0  502  501  0.00000000000E+00  0.00000000000E+00  0.55207256680E+03  0.55207256680E+03  0.00000000000E+00 0.  1.
         21   -1    0    0  501  502 -0.00000000000E+00 -0.00000000000E+00 -0.14326470576E+03  0.14326470576E+03  0.00000000000E+00 0.  1.
         25    1    1    2    0    0  0.68495762998E+02 -0.72732967824E+02  0.53497534618E+02  0.16872682172E+03  0.12500000000E+03 0.  0.
         25    1    1    2    0    0 -0.98660547714E+02  0.70603645343E+02  0.35783270810E+03  0.39797993090E+03  0.12500000000E+03 0.  0.
         25    1    1    2    0    0  0.30164784716E+02  0.21293224807E+01 -0.25223816748E+01  0.12863051994E+03  0.12500000000E+03 0.  0.
</event>
<event>
 5    0  0.5626800E-005  0.2314938E+03  0.7546771E-02  0.1125593E+00
         21   -1    0    0  502  501  0.00000000000E+00  0.00000000000E+00  0.10504753647E+04  0.10504753647E+04  0.00000000000E+00 0.  1.
         21   -1    0    0  501  502 -0.00000000000E+00 -0.00000000000E+00 -0.51014390980E+02  0.51014390980E+02  0.00000000000E+00 0.  1.
         25    1    1    2    0    0  0.37705133630E+01 -0.13960015295E+02  0.31359154857E+03  0.33789607594E+03  0.12500000000E+03 0.  0.
         25    1    1    2    0    0 -0.15112170175E+02  0.11186100615E+03  0.26910053112E+03  0.31746079795E+03  0.12500000000E+03 0.  0.
         25    1    1    2    0    0  0.11341656812E+02 -0.97900990856E+02  0.41676889404E+03  0.44613288181E+03  0.12500000000E+03 0.  0.
</event>
<event>
 5    0  0.5626800E-005  0.3182548E+03  0.7546771E-02  0.1076455E+00
         21   -1    0    0  502  501  0.00000000000E+00  0.00000000000E+00  0.55161642219E+03  0.55161642219E+03  0.00000000000E+00 0. -1.
         21   -1    0    0  501  502 -0.00000000000E+00 -0.00000000000E+00 -0.18361692925E+03  0.18361692925E+03  0.00000000000E+00 0. -1.
         25    1    1    2    0    0 -0.19502621495E+02  0.93611295607E+02 -0.45491073846E+02  0.16382266238E+03  0.12500000000E+03 0.  0.
         25    1    1    2    0    0  0.56775584863E+02 -0.72549792350E+02  0.20285296843E+02  0.15659959347E+03  0.12500000000E+03 0.  0.
         25    1    1    2    0    0 -0.37272963368E+02 -0.21061503257E+02  0.39320526994E+03  0.41481109559E+03  0.12500000000E+03 0.  0.
</event>
<event>
 5    0  0.5626800E-005  0.2399462E+03  0.7546771E-02  0.1119829E+00
         21   -1    0    0  502  501  0.00000000000E+00  0.00000000000E+00  0.46227699137E+02  0.46227699137E+02  0.00000000000E+00 0. -1.
         21   -1    0    0  501  502 -0.00000000000E+00 -0.00000000000E+00 -0.12454477660E+04  0.12454477660E+04  0.00000000000E+00 0. -1.
         25    1    1    2    0    0  0.17734097241E+02  0.43557922948E+02 -0.20529013171E+03  0.24490983858E+03  0.12500000000E+03 0.  0.
         25    1    1    2    0    0 -0.33087938007E+02 -0.36857388532E+01 -0.17704071620E+03  0.21926425040E+03  0.12500000000E+03 0.  0.
         25    1    1    2    0    0  0.15353840766E+02 -0.39872184095E+02 -0.81688921891E+03  0.82750137611E+03  0.12500000000E+03 0.  0.
</event>
<event>
 5    0  0.5626800E-005  0.2964310E+03  0.7546771E-02  0.1087038E+00
         21   -1    0    0  502  501  0.00000000000E+00  0.00000000000E+00  0.49469289594E+03  0.49469289594E+03  0.00000000000E+00 0. -1.
         21   -1    0    0  501  502 -0.00000000000E+00 -0.00000000000E+00 -0.17762802282E+03  0.17762802282E+03  0.00000000000E+00 0. -1.
         25    1    1    2    0    0 -0.61384832322E+02  0.49289626917E+02  0.62422163749E+02  0.16037172908E+03  0.12500000000E+03 0.  0.
         25    1    1    2    0    0 -0.36710199175E+02 -0.41121205007E+02 -0.67706870538E+02  0.15247233370E+03  0.12500000000E+03 0.  0.
         25    1    1    2    0    0  0.98095031497E+02 -0.81684219104E+01  0.32234957991E+03  0.35947685599E+03  0.12500000000E+03 0.  0.
</event>
<event>
 5    0  0.5626800E-005  0.2308695E+03  0.7546771E-02  0.1126029E+00
         21   -1    0    0  502  501  0.00000000000E+00  0.00000000000E+00  0.24213653374E+02  0.24213653374E+02  0.00000000000E+00 0.  1.
         21   -1    0    0  501  502 -0.00000000000E+00 -0.00000000000E+00 -0.22012668188E+04  0.22012668188E+04  0.00000000000E+00 0.  1.
         25    1    1    2    0    0  0.35034480509E+02  0.11039007543E+03 -0.10677599960E+04  0.10812723027E+04  0.12500000000E+03 0.  0.
         25    1    1    2    0    0 -0.19546094964E+02 -0.29594970865E+02 -0.46949667200E+03  0.48714478048E+03  0.12500000000E+03 0.  0.
         25    1    1    2    0    0 -0.15488385545E+02 -0.80795104565E+02 -0.63979649740E+03  0.65706338894E+03  0.12500000000E+03 0.  0.
</event>
<event>
 5    0  0.5626800E-005  0.2369615E+03  0.7546771E-02  0.1121834E+00
         21   -1    0    0  502  501  0.00000000000E+00  0.00000000000E+00  0.15999709155E+03  0.15999709155E+03  0.00000000000E+00 0. -1.
         21   -1    0    0  501  502 -0.00000000000E+00 -0.00000000000E+00 -0.35094855595E+03  0.35094855595E+03  0.00000000000E+00 0. -1.
         25    1    1    2    0    0  0.44607029491E+02 -0.87047153270E+01 -0.55185382921E+02  0.14399995013E+03  0.12500000000E+03 0.  0.
         25    1    1    2    0    0  0.17231067264E+02  0.58492358891E+02 -0.16521949985E+03  0.21596469355E+03  0.12500000000E+03 0.  0.
         25    1    1    2    0    0 -0.61838096755E+02 -0.49787643564E+02  0.29453418376E+02  0.15098100382E+03  0.12500000000E+03 0.  0.
</event>
<event>
 5    0  0.5626800E-005  0.3619929E+03  0.7546771E-02  0.1057798E+00
         21   -1    0    0  502  501  0.00000000000E+00  0.00000000000E+00  0.24494285275E+03  0.24494285275E+03  0.00000000000E+00 0.  1.
         21   -1    0    0  501  502 -0.00000000000E+00 -0.00000000000E+00 -0.53497723497E+03  0.53497723497E+03  0.00000000000E+00 0.  1.
         25    1    1    2    0    0 -0.65608522026E+02  0.15395997264E+03 -0.66826665863E+02  0.21931473869E+03  0.12500000000E+03 0.  0.
         25    1    1    2    0    0  0.56953915061E+02 -0.27510155552E+03 -0.23337738262E+03  0.38602411454E+03  0.12500000000E+03 0.  0.
         25    1    1    2    0    0  0.86546069652E+01  0.12114158288E+03  0.10169666269E+02  0.17458123449E+03  0.12500000000E+03 0.  0.
</event>
<event>
 5    0  0.5626800E-005  0.2793531E+03  0.7546771E-02  0.1096043E+00
         21   -1    0    0  502  501  0.00000000000E+00  0.00000000000E+00  0.36738988234E+03  0.36738988234E+03  0.00000000000E+00 0.  1.
         21   -1    0    0  501  502 -0.00000000000E+00 -0.00000000000E+00 -0.21241242835E+03  0.21241242835E+03  0.00000000000E+00 0.  1.
         25    1    1    2    0    0  0.11818339343E+03 -0.20340047052E+02  0.10809230250E+03  0.20418123777E+03  0.12500000000E+03 0.  0.
         25    1    1    2    0    0 -0.62234738462E+02 -0.93669635189E+02 -0.46478558922E+02  0.17444890274E+03  0.12500000000E+03 0.  0.
         25    1    1    2    0    0 -0.55948654967E+02  0.11400968224E+03  0.93363710413E+02  0.20117217019E+03  0.12500000000E+03 0.  0.
</event>
<event>
 5    0  0.5626800E-005  0.2685255E+03  0.7546771E-02  0.1102126E+00
         21   -1    0    0  502  501  0.00000000000E+00  0.00000000000E+00  0.24373664356E+03  0.24373664356E+03  0.00000000000E+00 0. -1.
         21   -1    0    0  501  502 -0.00000000000E+00 -0.00000000000E+00 -0.29583541427E+03  0.29583541427E+03  0.00000000000E+00 0. -1.
         25    1    1    2    0    0  0.17008807432E+03  0.20439738523E+02  0.24944015690E+01  0.21208243203E+03  0.12500000000E+03 0.  0.
         25    1    1    2    0    0 -0.11463448860E+03 -0.33993069903E+02  0.14675928467E+02  0.17360005085E+03  0.12500000000E+03 0.  0.
         25    1    1    2    0    0 -0.55453585723E+02  0.13553331380E+02 -0.69269100738E+02  0.15388957495E+03  0.12500000000E+03 0.  0.
</event>
<event>
 5    0  0.5626800E-005  0.2307209E+03  0.7546771E-02  0.1126133E+00
         21   -1    0    0  502  501  0.00000000000E+00  0.00000000000E+00  0.22685195565E+03  0.22685195565E+03  0.00000000000E+00 0.  1.
         21   -1    0    0  501  502 -0.00000000000E+00 -0.00000000000E+00 -0.23465574351E+03  0.23465574351E+03  0.00000000000E+00 0.  1.
         25    1    1    2    0    0 -0.35496477792E+02 -0.29440621222E+02  0.48186512496E+02  0.14168165054E+03  0.12500000000E+03 0.  0.
         25    1    1    2    0    0 -0.48556848742E+02 -0.47461108100E+02 -0.49353363473E+02  0.15056918286E+03  0.12500000000E+03 0.  0.
         25    1    1    2    0    0  0.84053326534E+02  0.76901729322E+02 -0.66369368746E+01  0.16925686576E+03  0.12500000000E+03 0.  0.
</event>
<event>
 5    0  0.5626800E-005  0.2157967E+03  0.7546771E-02  0.1137056E+00
         21   -1    0    0  502  501  0.00000000000E+00  0.00000000000E+00  0.73010187759E+03  0.73010187759E+03  0.00000000000E+00 0.  1.
         21   -1    0    0  501  502 -0.00000000000E+00 -0.00000000000E+00 -0.63783146501E+02  0.63783146501E+02  0.00000000000E+00 0.  1.
         25    1    1    2    0    0 -0.44281988428E+02  0.15820799437E+02  0.20590083506E+03  0.24542075314E+03  0.12500000000E+03 0.  0.
         25    1    1    2    0    0  0.99895494629E+02 -0.17731599507E+02  0.23831097256E+03  0.28759457420E+03  0.12500000000E+03 0.  0.
         25    1    1    2    0    0 -0.55613506200E+02  0.19108000698E+01  0.22210692347E+03  0.26086969675E+03  0.12500000000E+03 0.  0.
</event>
<event>
 5    0  0.5626800E-005  0.2123304E+03  0.7546771E-02  0.1139734E+00
         21   -1    0    0  502  501  0.00000000000E+00  0.00000000000E+00  0.20709727971E+03  0.20709727971E+03  0.00000000000E+00 0.  1.
         21   -1    0    0  501  502 -0.00000000000E+00 -0.00000000000E+00 -0.21769567512E+03  0.21769567512E+03  0.00000000000E+00 0.  1.
         25    1    1    2    0    0  0.89545983809E+00 -0.51889826356E+02 -0.47750272693E+02  0.14352158190E+03  0.12500000000E+03 0.  0.
         25    1    1    2    0    0  0.31924933146E+01 -0.62178927611E+01  0.64262944783E+02  0.14072519418E+03  0.12500000000E+03 0.  0.
         25    1    1    2    0    0 -0.40879531527E+01  0.58107719117E+02 -0.27111067509E+02  0.14054617876E+03  0.12500000000E+03 0.  0.
</event>
<event>
 5    0  0.5626800E-005  0.3316102E+03  0.7546771E-02  0.1070427E+00
         21   -1    0    0  502  501  0.00000000000E+00  0.00000000000E+00  0.97387089097E+03  0.97387089097E+03  0.00000000000E+00 0. -1.
         21   -1    0    0  501  502 -0.00000000000E+00 -0.00000000000E+00 -0.11291570985E+03  0.11291570985E+03  0.00000000000E+00 0. -1.
         25    1    1    2    0    0  0.93580242080E+02 -0.43914910844E+02  0.28053386341E+03  0.32405251060E+03  0.12500000000E+03 0.  0.
         25    1    1    2    0    0  0.62036354241E+02 -0.93915309039E+02  0.46425079039E+03  0.49378374912E+03  0.12500000000E+03 0.  0.
         25    1    1    2    0    0 -0.15561659632E+03  0.13783021988E+03  0.11617052732E+03  0.26895034111E+03  0.12500000000E+03 0.  0.
</event>
<event>
 5    0  0.5626800E-005  0.4525547E+03  0.7546771E-02  0.1026963E+00
         21   -1    0    0  502  501  0.00000000000E+00  0.00000000000E+00  0.73677582094E+03  0.73677582094E+03  0.00000000000E+00 0.  1.
         21   -1    0    0  501  502 -0.00000000000E+00 -0.00000000000E+00 -0.27797569092E+03  0.27797569092E+03  0.00000000000E+00 0.  1.
         25    1    1    2    0    0 -0.30351873101E+03 -0.23460121711E+03  0.11464481818E+03  0.41943984727E+03  0.12500000000E+03 0.  0.
         25    1    1    2    0    0  0.25309702330E+03  0.11656489866E+03  0.19663767223E+03  0.36323112882E+03  0.12500000000E+03 0.  0.
         25    1    1    2    0    0  0.50421707707E+02  0.11803631846E+03  0.14751763962E+03  0.23208053576E+03  0.12500000000E+03 0.  0.
</event>
<event>
 5    0  0.5626800E-005  0.2284771E+03  0.7546771E-02  0.1127716E+00
         21   -1    0    0  502  501  0.00000000000E+00  0.00000000000E+00  0.14459954502E+04  0.14459954502E+04  0.00000000000E+00 0.  1.
         21   -1    0    0  501  502 -0.00000000000E+00 -0.00000000000E+00 -0.36100927779E+02  0.36100927779E+02  0.00000000000E+00 0.  1.
         25    1    1    2    0    0 -0.82404992027E+02  0.24235008742E+02  0.32733989470E+03  0.36076907437E+03  0.12500000000E+03 0.  0.
         25    1    1    2    0    0 -0.22620324848E+02 -0.11780909802E+02  0.42845532175E+03  0.44704522329E+03  0.12500000000E+03 0.  0.
         25    1    1    2    0    0  0.10502531688E+03 -0.12454098940E+02  0.65409930602E+03  0.67428208036E+03  0.12500000000E+03 0.  0.
</event>
<event>
 5    0  0.6260996E-005  0.3286963E+03  0.7546771E-02  0.1071715E+00
         21   -1    0    0  502  501  0.00000000000E+00  0.00000000000E+00  0.48333918750E+03  0.48333918750E+03  0.00000000000E+00 0. -1.
         21   -1    0    0  501  502 -0.00000000000E+00 -0.00000000000E+00 -0.22353091682E+03  0.22353091682E+03  0.00000000000E+00 0. -1.
         25    1    1    2    0    0  0.17966399711E+03  0.56829068675E+01  0.19002256009E+03  0.28990519249E+03  0.12500000000E+03 0.  0.
         25    1    1    2    0    0 -0.92635787247E+02 -0.10046041431E+03 -0.60969746263E+02  0.19497690602E+03  0.12500000000E+03 0.  0.
         25    1    1    2    0    0 -0.87028209865E+02  0.94777507440E+02  0.13075545686E+03  0.22198800582E+03  0.12500000000E+03 0.  0.
</event>
<event>
 5    0  0.5626800E-005  0.2774080E+03  0.7546771E-02  0.1097113E+00
         21   -1    0    0  502  501  0.00000000000E+00  0.00000000000E+00  0.75605877335E+02  0.75605877335E+02  0.00000000000E+00 0.  1.
         21   -1    0    0  501  502 -0.00000000000E+00 -0.00000000000E+00 -0.10178466695E+04  0.10178466695E+04  0.00000000000E+00 0.  1.
         25    1    1    2    0    0 -0.13879594903E+03 -0.98276041951E+02 -0.27387987244E+03  0.34577113878E+03  0.12500000000E+03 0.  0.
         25    1    1    2    0    0  0.39790383700E+02  0.64822132256E+02 -0.17499535015E+03  0.22810864964E+03  0.12500000000E+03 0.  0.
         25    1    1    2    0    0  0.99005565332E+02  0.33453909695E+02 -0.49336556954E+03  0.51957275838E+03  0.12500000000E+03 0.  0.
</event>
<event>
 5    0  0.5626800E-005  0.3390842E+03  0.7546771E-02  0.1067187E+00
         21   -1    0    0  502  501  0.00000000000E+00  0.00000000000E+00  0.31490410590E+03  0.31490410590E+03  0.00000000000E+00 0.  1.
         21   -1    0    0  501  502 -0.00000000000E+00 -0.00000000000E+00 -0.36512093064E+03  0.36512093064E+03  0.00000000000E+00 0.  1.
         25    1    1    2    0    0 -0.14757957546E+03  0.57533218179E+02  0.15521889071E+02  0.20237522409E+03  0.12500000000E+03 0.  0.
         25    1    1    2    0    0  0.26345755701E+03 -0.67415787668E+02 -0.67887779536E+02  0.30690148808E+03  0.12500000000E+03 0.  0.
         25    1    1    2    0    0 -0.11587798155E+03  0.98825694885E+01  0.21490657248E+01  0.17074832436E+03  0.12500000000E+03 0.  0.
</event>
<event>
 5    0  0.5626800E-005  0.2313821E+03  0.7546771E-02  0.1125671E+00
         21   -1    0    0  502  501  0.00000000000E+00  0.00000000000E+00  0.12123912157E+03  0.12123912157E+03  0.00000000000E+00 0.  1.
         21   -1    0    0  501  502 -0.00000000000E+00 -0.00000000000E+00 -0.44158749800E+03  0.44158749800E+03  0.00000000000E+00 0.  1.
         25    1    1    2    0    0 -0.25070773917E+02  0.93792051947E+02 -0.59527740403E+02  0.16909773680E+03  0.12500000000E+03 0.  0.
         25    1    1    2    0    0  0.45142690814E+01 -0.10079877996E+03 -0.18859873006E+03  0.24774029476E+03  0.12500000000E+03 0.  0.
         25    1    1    2    0    0  0.20556504836E+02  0.70067280105E+01 -0.72221905969E+02  0.14598858801E+03  0.12500000000E+03 0.  0.
</event>
<event>
 5    0  0.5626800E-005  0.3082405E+03  0.7546771E-02  0.1081192E+00
         21   -1    0    0  502  501  0.00000000000E+00  0.00000000000E+00  0.14976148007E+04  0.14976148007E+04  0.00000000000E+00 0.  1.
         21   -1    0    0  501  502 -0.00000000000E+00 -0.00000000000E+00 -0.63442369118E+02  0.63442369118E+02  0.00000000000E+00 0.  1.
         25    1    1    2    0    0 -0.19586044603E+03  0.12350821806E+03  0.54725315927E+03  0.60722863451E+03  0.12500000000E+03 0.  0.
         25    1    1    2    0    0  0.52978846015E+02 -0.29047193681E+02  0.34200255984E+03  0.36910872182E+03  0.12500000000E+03 0.  0.
         25    1    1    2    0    0  0.14288160001E+03 -0.94461024380E+02  0.54491671251E+03  0.58471981352E+03  0.12500000000E+03 0.  0.
</event>
<event>
 5    0  0.5626800E-005  0.3332794E+03  0.7546771E-02  0.1069695E+00
         21   -1    0    0  502  501  0.00000000000E+00  0.00000000000E+00  0.48174686854E+03  0.48174686854E+03  0.00000000000E+00 0.  1.
         21   -1    0    0  501  502 -0.00000000000E+00 -0.00000000000E+00 -0.23056751370E+03  0.23056751370E+03  0.00000000000E+00 0.  1.
         25    1    1    2    0    0 -0.24536852639E+02 -0.11832641445E+03  0.53614014369E+02  0.18194136427E+03  0.12500000000E+03 0.  0.
         25    1    1    2    0    0 -0.25848717404E+02  0.91615274621E+02 -0.11115285870E+03  0.19246161366E+03  0.12500000000E+03 0.  0.
         25    1    1    2    0    0  0.50385570043E+02  0.26711139833E+02  0.30871819917E+03  0.33791140430E+03  0.12500000000E+03 0.  0.
</event>
<event>
 5    0  0.5879134E-005  0.2899537E+03  0.7546771E-02  0.1090373E+00
         21   -1    0    0  502  501  0.00000000000E+00  0.00000000000E+00  0.31051393667E+03  0.31051393667E+03  0.00000000000E+00 0.  1.
         21   -1    0    0  501  502 -0.00000000000E+00 -0.00000000000E+00 -0.27075482196E+03  0.27075482196E+03  0.00000000000E+00 0.  1.
         25    1    1    2    0    0  0.31495665978E+02  0.59733085957E+02  0.72274816699E+02  0.15940096506E+03  0.12500000000E+03 0.  0.
         25    1    1    2    0    0 -0.70571842213E+02  0.92627011840E+02  0.83195367991E+02  0.19001741365E+03  0.12500000000E+03 0.  0.
         25    1    1    2    0    0  0.39076176236E+02 -0.15236009780E+03 -0.11571106998E+03  0.23185037992E+03  0.12500000000E+03 0.  0.
</event>
<event>
 5    0  0.5626800E-005  0.3693794E+03  0.7546771E-02  0.1054931E+00
         21   -1    0    0  502  501  0.00000000000E+00  0.00000000000E+00  0.52077931660E+03  0.52077931660E+03  0.00000000000E+00 0.  1.
         21   -1    0    0  501  502 -0.00000000000E+00 -0.00000000000E+00 -0.26199412864E+03  0.26199412864E+03  0.00000000000E+00 0.  1.
         25    1    1    2    0    0 -0.16383740404E+02 -0.30748443776E+03  0.17958822481E+03  0.37774599522E+03  0.12500000000E+03 0.  0.
         25    1    1    2    0    0  0.89094364658E+01  0.17056397544E+03  0.40814425339E+02  0.21555107305E+03  0.12500000000E+03 0.  0.
         25    1    1    2    0    0  0.74743039385E+01  0.13692046232E+03  0.38382537809E+02  0.18947637697E+03  0.12500000000E+03 0.  0.
</event>
<event>
 5    0  0.5626800E-005  0.3900970E+03  0.7546771E-02  0.1047264E+00
         21   -1    0    0  502  501  0.00000000000E+00  0.00000000000E+00  0.23122450169E+04  0.23122450169E+04  0.00000000000E+00 0.  1.
         21   -1    0    0  501  502 -0.00000000000E+00 -0.00000000000E+00 -0.65812950182E+02  0.65812950182E+02  0.00000000000E+00 0.  1.
         25    1    1    2    0    0  0.44865026465E+02 -0.24823891947E+03  0.99315186925E+03  0.10322843926E+04  0.12500000000E+03 0.  0.
         25    1    1    2    0    0 -0.16466293977E+03  0.19270943793E+03  0.95968778324E+03  0.10004381303E+04  0.12500000000E+03 0.  0.
         25    1    1    2    0    0  0.11979791331E+03  0.55529481544E+02  0.29359241418E+03  0.34533544420E+03  0.12500000000E+03 0.  0.
</event>
<event>
 5    0  0.5626800E-005  0.5076890E+03  0.7546771E-02  0.1011791E+00
         21   -1    0    0  502  501  0.00000000000E+00  0.00000000000E+00  0.13280586724E+04  0.13280586724E+04  0.00000000000E+00 0. -1.
         21   -1    0    0  501  502 -0.00000000000E+00 -0.00000000000E+00 -0.19407887370E+03  0.19407887370E+03  0.00000000000E+00 0. -1.
         25    1    1    2    0    0  0.18589211703E+03  0.10611593846E+03  0.22827838851E+03  0.33697550984E+03  0.12500000000E+03 0.  0.
         25    1    1    2    0    0  0.20191616619E+03 -0.22373751383E+03  0.50808208606E+03  0.60382200974E+03  0.12500000000E+03 0.  0.
         25    1    1    2    0    0 -0.38780828323E+03  0.11762157537E+03  0.39761932418E+03  0.58134002657E+03  0.12500000000E+03 0.  0.
</event>
<event>
 5    0  0.5626800E-005  0.2457867E+03  0.7546771E-02  0.1115997E+00
         21   -1    0    0  502  501  0.00000000000E+00  0.00000000000E+00  0.38484304220E+03  0.38484304220E+03  0.00000000000E+00 0.  1.
         21   -1    0    0  501  502 -0.00000000000E+00 -0.00000000000E+00 -0.15697592830E+03  0.15697592830E+03  0.00000000000E+00 0.  1.
         25    1    1    2    0    0 -0.12612703527E+03  0.57094687831E+02  0.54856279720E+02  0.19442747704E+03  0.12500000000E+03 0.  0.
         25    1    1    2    0    0  0.11091727030E+03 -0.16913403963E+02  0.82037836250E+02  0.18693290417E+03  0.12500000000E+03 0.  0.
         25    1    1    2    0    0  0.15209764965E+02 -0.40181283868E+02  0.90972997933E+02  0.16045858929E+03  0.12500000000E+03 0.  0.
</event>
<event>
 5    0  0.5626800E-005  0.3265614E+03  0.7546771E-02  0.1072669E+00
         21   -1    0    0  502  501  0.00000000000E+00  0.00000000000E+00  0.63461200774E+02  0.63461200774E+02  0.00000000000E+00 0.  1.
         21   -1    0    0  501  502 -0.00000000000E+00 -0.00000000000E+00 -0.16804339550E+04  0.16804339550E+04  0.00000000000E+00 0.  1.
         25    1    1    2    0    0 -0.53332295915E+02 -0.14654677797E+02 -0.69369412063E+03  0.70703297403E+03  0.12500000000E+03 0.  0.
         25    1    1    2    0    0 -0.79898660624E+02 -0.15052337563E+03 -0.55441448902E+03  0.59333085898E+03  0.12500000000E+03 0.  0.
         25    1    1    2    0    0  0.13323095654E+03  0.16517805343E+03 -0.36886414455E+03  0.44353132274E+03  0.12500000000E+03 0.  0.
</event>
<event>
 5    0  0.5626800E-005  0.3331332E+03  0.7546771E-02  0.1069759E+00
         21   -1    0    0  502  501  0.00000000000E+00  0.00000000000E+00  0.25061480619E+03  0.25061480619E+03  0.00000000000E+00 0.  1.
         21   -1    0    0  501  502 -0.00000000000E+00 -0.00000000000E+00 -0.44282203683E+03  0.44282203683E+03  0.00000000000E+00 0.  1.
         25    1    1    2    0    0  0.18030383239E+02 -0.10097300069E+03 -0.13890689869E+02  0.16229169065E+03  0.12500000000E+03 0.  0.
         25    1    1    2    0    0 -0.13644910046E+03  0.36678217691E+02  0.87515212428E+02  0.20796047960E+03  0.12500000000E+03 0.  0.
         25    1    1    2    0    0  0.11841871722E+03  0.64294782995E+02 -0.26583175320E+03  0.32318467278E+03  0.12500000000E+03 0.  0.
</event>
<event>
 5    0  0.5626800E-005  0.2466514E+03  0.7546771E-02  0.1115440E+00
         21   -1    0    0  502  501  0.00000000000E+00  0.00000000000E+00  0.22009748046E+03  0.22009748046E+03  0.00000000000E+00 0. -1.
         21   -1    0    0  501  502 -0.00000000000E+00 -0.00000000000E+00 -0.27640884427E+03  0.27640884427E+03  0.00000000000E+00 0. -1.
         25    1    1    2    0    0  0.36426906345E+02 -0.11276960129E+03  0.57786101353E+02  0.18168141344E+03  0.12500000000E+03 0.  0.
         25    1    1    2    0    0 -0.51247062740E+02  0.42543208138E+02 -0.92270510027E+02  0.16904151271E+03  0.12500000000E+03 0.  0.
         25    1    1    2    0    0  0.14820156396E+02  0.70226393150E+02 -0.21826955141E+02  0.14578339858E+03  0.12500000000E+03 0.  0.
</event>
<event>
 5    0  0.5626800E-005  0.2771101E+03  0.7546771E-02  0.1097278E+00
         21   -1    0    0  502  501  0.00000000000E+00  0.00000000000E+00  0.70382270655E+02  0.70382270655E+02  0.00000000000E+00 0.  1.
         21   -1    0    0  501  502 -0.00000000000E+00 -0.00000000000E+00 -0.10910418910E+04  0.10910418910E+04  0.00000000000E+00 0.  1.
         25    1    1    2    0    0 -0.13498040477E+03 -0.21348946203E+02 -0.29587423670E+03  0.34905880753E+03  0.12500000000E+03 0.  0.
         25    1    1    2    0    0  0.33360947934E+02  0.15528838525E+02 -0.58394296367E+03  0.59830467363E+03  0.12500000000E+03 0.  0.
         25    1    1    2    0    0  0.10161945684E+03  0.58201076779E+01 -0.14084241995E+03  0.21406068046E+03  0.12500000000E+03 0.  0.
</event>
<event>
 5    0  0.5626800E-005  0.2168714E+03  0.7546771E-02  0.1136237E+00
         21   -1    0    0  502  501  0.00000000000E+00  0.00000000000E+00  0.60258190587E+03  0.60258190587E+03  0.00000000000E+00 0. -1.
         21   -1    0    0  501  502 -0.00000000000E+00 -0.00000000000E+00 -0.78052832246E+02  0.78052832246E+02  0.00000000000E+00 0. -1.
         25    1    1    2    0    0 -0.97579978235E+02 -0.17314516951E+02  0.19505739840E+03  0.25198022407E+03  0.12500000000E+03 0.  0.
         25    1    1    2    0    0  0.48069955180E+02  0.15513179571E+01  0.20427155563E+03  0.24426419226E+03  0.12500000000E+03 0.  0.
         25    1    1    2    0    0  0.49510023055E+02  0.15763198994E+02  0.12520011959E+03  0.18439032179E+03  0.12500000000E+03 0.  0.
</event>
<event>
 5    0  0.5626800E-005  0.3982732E+03  0.7546771E-02  0.1044379E+00
         21   -1    0    0  502  501  0.00000000000E+00  0.00000000000E+00  0.13335154848E+03  0.13335154848E+03  0.00000000000E+00 0.  1.
         21   -1    0    0  501  502 -0.00000000000E+00 -0.00000000000E+00 -0.11894993253E+04  0.11894993253E+04  0.00000000000E+00 0.  1.
         25    1    1    2    0    0 -0.29260930577E+01  0.18512800748E+03 -0.42966547539E+03  0.48427095920E+03  0.12500000000E+03 0.  0.
         25    1    1    2    0    0 -0.12262145438E+03  0.10801302623E+03 -0.16417599135E+03  0.26321396438E+03  0.12500000000E+03 0.  0.
         25    1    1    2    0    0  0.12554754744E+03 -0.29314103371E+03 -0.46230631009E+03  0.57536595021E+03  0.12500000000E+03 0.  0.
</event>
<event>
 5    0  0.5626800E-005  0.4037788E+03  0.7546771E-02  0.1042479E+00
         21   -1    0    0  502  501  0.00000000000E+00  0.00000000000E+00  0.43496754301E+03  0.43496754301E+03  0.00000000000E+00 0.  1.
         21   -1    0    0  501  502 -0.00000000000E+00 -0.00000000000E+00 -0.37482643904E+03  0.37482643904E+03  0.00000000000E+00 0.  1.
         25    1    1    2    0    0 -0.18398658152E+03 -0.19761364045E+03  0.14001197177E+03  0.32883212329E+03  0.12500000000E+03 0.  0.
         25    1    1    2    0    0 -0.22939892063E+02  0.18295974061E+03  0.90705199685E+01  0.22295241569E+03  0.12500000000E+03 0.  0.
         25    1    1    2    0    0  0.20692647358E+03  0.14653899843E+02 -0.88941387773E+02  0.25800944306E+03  0.12500000000E+03 0.  0.
</event>
<event>
 5    0  0.5626800E-005  0.2324421E+03  0.7546771E-02  0.1124933E+00
         21   -1    0    0  502  501  0.00000000000E+00  0.00000000000E+00  0.12745381383E+03  0.12745381383E+03  0.00000000000E+00 0. -1.
         21   -1    0    0  501  502 -0.00000000000E+00 -0.00000000000E+00 -0.42391293945E+03  0.42391293945E+03  0.00000000000E+00 0. -1.
         25    1    1    2    0    0  0.40189689522E+01 -0.16563402290E+02 -0.47557833620E+02  0.13482301712E+03  0.12500000000E+03 0.  0.
         25    1    1    2    0    0  0.47575270059E+02  0.10120909105E+03 -0.16905649823E+03  0.23814236504E+03  0.12500000000E+03 0.  0.
         25    1    1    2    0    0 -0.51594239011E+02 -0.84645688756E+02 -0.79844793765E+02  0.17840137111E+03  0.12500000000E+03 0.  0.
</event>
<event>
 5    0  0.5626800E-005  0.3073409E+03  0.7546771E-02  0.1081627E+00
         21   -1    0    0  502  501  0.00000000000E+00  0.00000000000E+00  0.15791243881E+03  0.15791243881E+03  0.00000000000E+00 0. -1.
         21   -1    0    0  501  502 -0.00000000000E+00 -0.00000000000E+00 -0.59816978560E+03  0.59816978560E+03  0.00000000000E+00 0. -1.
         25    1    1    2    0    0  0.44982372807E+02 -0.26187017372E+02 -0.10751482822E+03  0.17289769238E+03  0.12500000000E+03 0.  0.
         25    1    1    2    0    0  0.14208302125E+03  0.84686155861E+02 -0.43045331498E+02  0.21174803537E+03  0.12500000000E+03 0.  0.
         25    1    1    2    0    0 -0.18706539405E+03 -0.58499138489E+02 -0.28969718706E+03  0.37143649666E+03  0.12500000000E+03 0.  0.
</event>
<event>
 5    0  0.5626800E-005  0.3929626E+03  0.7546771E-02  0.1046244E+00
         21   -1    0    0  502  501  0.00000000000E+00  0.00000000000E+00  0.11688285344E+04  0.11688285344E+04  0.00000000000E+00 0. -1.
         21   -1    0    0  501  502 -0.00000000000E+00 -0.00000000000E+00 -0.13211484723E+03  0.13211484723E+03  0.00000000000E+00 0. -1.
         25    1    1    2    0    0 -0.19064939463E+03 -0.74631936523E+02  0.22655465339E+03  0.32995322183E+03  0.12500000000E+03 0.  0.
         25    1    1    2    0    0 -0.45554734938E+02  0.92260217378E+02  0.62441315176E+03  0.64506121079E+03  0.12500000000E+03 0.  0.
         25    1    1    2    0    0  0.23620412957E+03 -0.17628280856E+02  0.18574588202E+03  0.32592894900E+03  0.12500000000E+03 0.  0.
</event>
<event>
 5    0  0.5626800E-005  0.4069905E+03  0.7546771E-02  0.1041386E+00
         21   -1    0    0  502  501  0.00000000000E+00  0.00000000000E+00  0.35402365985E+03  0.35402365985E+03  0.00000000000E+00 0. -1.
         21   -1    0    0  501  502 -0.00000000000E+00 -0.00000000000E+00 -0.46788188547E+03  0.46788188547E+03  0.00000000000E+00 0. -1.
         25    1    1    2    0    0 -0.90599426008E+02 -0.30790527041E+03  0.45806462912E+02  0.34747250767E+03  0.12500000000E+03 0.  0.
         25    1    1    2    0    0  0.96145519734E+02  0.22198214562E+03 -0.28420216711E+02  0.27377498545E+03  0.12500000000E+03 0.  0.
         25    1    1    2    0    0 -0.55460937262E+01  0.85923124794E+02 -0.13124447182E+03  0.20065805220E+03  0.12500000000E+03 0.  0.
</event>
<event>
 5    0  0.5626800E-005  0.3836681E+03  0.7546771E-02  0.1049586E+00
         21   -1    0    0  502  501  0.00000000000E+00  0.00000000000E+00  0.14303434925E+04  0.14303434925E+04  0.00000000000E+00 0. -1.
         21   -1    0    0  501  502 -0.00000000000E+00 -0.00000000000E+00 -0.10291318362E+03  0.10291318362E+03  0.00000000000E+00 0. -1.
         25    1    1    2    0    0 -0.40571756400E+02 -0.19381920779E+01  0.76975720177E+03  0.78089754366E+03  0.12500000000E+03 0.  0.
         25    1    1    2    0    0  0.11537708394E+02 -0.17868651655E+03  0.92586334091E+02  0.23719025944E+03  0.12500000000E+03 0.  0.
         25    1    1    2    0    0  0.29034048006E+02  0.18062470862E+03  0.46508677298E+03  0.51516887300E+03  0.12500000000E+03 0.  0.
</event>
<event>
 5    0  0.5626800E-005  0.3358321E+03  0.7546771E-02  0.1068585E+00
         21   -1    0    0  502  501  0.00000000000E+00  0.00000000000E+00  0.41783044578E+03  0.41783044578E+03  0.00000000000E+00 0. -1.
         21   -1    0    0  501  502 -0.00000000000E+00 -0.00000000000E+00 -0.26992576465E+03  0.26992576465E+03  0.00000000000E+00 0. -1.
         25    1    1    2    0    0  0.74926735641E+02 -0.34271397174E+02  0.61400177543E+02  0.16181324476E+03  0.12500000000E+03 0.  0.
         25    1    1    2    0    0 -0.28047517541E+02 -0.17338546239E+03  0.15988669168E+03  0.26839883752E+03  0.12500000000E+03 0.  0.
         25    1    1    2    0    0 -0.46879218100E+02  0.20765685956E+03 -0.73382188094E+02  0.25754412815E+03  0.12500000000E+03 0.  0.
</event>
<event>
 5    0  0.5626800E-005  0.3228080E+03  0.7546771E-02  0.1074364E+00
         21   -1    0    0  502  501  0.00000000000E+00  0.00000000000E+00  0.62485706565E+03  0.62485706565E+03  0.00000000000E+00 0. -1.
         21   -1    0    0  501  502 -0.00000000000E+00 -0.00000000000E+00 -0.16676613833E+03  0.16676613833E+03  0.00000000000E+00 0. -1.
         25    1    1    2    0    0  0.81441990218E+02 -0.57313484534E+01  0.56423958865E+02  0.15960673313E+03  0.12500000000E+03 0.  0.
         25    1    1    2    0    0 -0.19471757569E+03 -0.12307228132E+03  0.29457878406E+03  0.39428844864E+03  0.12500000000E+03 0.  0.
         25    1    1    2    0    0  0.11327558547E+03  0.12880362977E+03  0.10708818439E+03  0.23772802221E+03  0.12500000000E+03 0.  0.
</event>
<event>
 5    0  0.5626800E-005  0.2848897E+03  0.7546771E-02  0.1093048E+00
         21   -1    0    0  502  501  0.00000000000E+00  0.00000000000E+00  0.21182598052E+03  0.21182598052E+03  0.00000000000E+00 0.  1.
         21   -1    0    0  501  502 -0.00000000000E+00 -0.00000000000E+00 -0.38315473812E+03  0.38315473812E+03  0.00000000000E+00 0.  1.
         25    1    1    2    0    0 -0.13886651168E+02 -0.97622668925E+02  0.66052017533E+02  0.17236848201E+03  0.12500000000E+03 0.  0.
         25    1    1    2    0    0 -0.36368948128E+02 -0.13127390601E+02 -0.20803041963E+03  0.24575736869E+03  0.12500000000E+03 0.  0.
         25    1    1    2    0    0  0.50255599296E+02  0.11075005953E+03 -0.29350355503E+02  0.17685486794E+03  0.12500000000E+03 0.  0.
</event>
<event>
 5    0  0.5725668E-005  0.2595700E+03  0.7546771E-02  0.1107402E+00
         21   -1    0    0  502  501  0.00000000000E+00  0.00000000000E+00  0.40907381697E+03  0.40907381697E+03  0.00000000000E+00 0. -1.
         21   -1    0    0  501  502 -0.00000000000E+00 -0.00000000000E+00 -0.16470515349E+03  0.16470515349E+03  0.00000000000E+00 0. -1.
         25    1    1    2    0    0  0.12465691273E+03 -0.11057291734E+03  0.13100003985E+03  0.24607260388E+03  0.12500000000E+03 0.  0.
         25    1    1    2    0    0 -0.59981944044E+02  0.79104765736E+02  0.34417290479E+02  0.16329405212E+03  0.12500000000E+03 0.  0.
         25    1    1    2    0    0 -0.64674968683E+02  0.31468151600E+02  0.78951333149E+02  0.16441231446E+03  0.12500000000E+03 0.  0.
</event>
<event>
 5    0  0.5626800E-005  0.3679925E+03  0.7546771E-02  0.1055463E+00
         21   -1    0    0  502  501  0.00000000000E+00  0.00000000000E+00  0.11294739906E+03  0.11294739906E+03  0.00000000000E+00 0.  1.
         21   -1    0    0  501  502 -0.00000000000E+00 -0.00000000000E+00 -0.11989517854E+04  0.11989517854E+04  0.00000000000E+00 0.  1.
         25    1    1    2    0    0  0.17160790476E+03 -0.22526740224E+02 -0.45806362897E+02  0.21835739026E+03  0.12500000000E+03 0.  0.
         25    1    1    2    0    0 -0.92943146405E+02  0.11240820422E+02 -0.29524163905E+03  0.33400211068E+03  0.12500000000E+03 0.  0.
         25    1    1    2    0    0 -0.78664758351E+02  0.11285919802E+02 -0.74495638440E+03  0.75953968353E+03  0.12500000000E+03 0.  0.
</event>
<event>
 5    0  0.5626800E-005  0.5883325E+03  0.7546771E-02  0.9929912E-01
         21   -1    0    0  502  501  0.00000000000E+00  0.00000000000E+00  0.75506919315E+03  0.75506919315E+03  0.00000000000E+00 0. -1.
         21   -1    0    0  501  502 -0.00000000000E+00 -0.00000000000E+00 -0.45841514728E+03  0.45841514728E+03  0.00000000000E+00 0. -1.
         25    1    1    2    0    0  0.15466385211E+03 -0.75777232283E+02  0.15189984803E+02  0.21335142775E+03  0.12500000000E+03 0.  0.
         25    1    1    2    0    0  0.13396625036E+03 -0.34703587339E+03  0.26380319330E+03  0.47286147914E+03  0.12500000000E+03 0.  0.
         25    1    1    2    0    0 -0.28863010248E+03  0.42281310567E+03  0.17660867758E+02  0.52727143355E+03  0.12500000000E+03 0.  0.
</event>
<event>
 5    0  0.5626800E-005  0.2800897E+03  0.7546771E-02  0.1095640E+00
         21   -1    0    0  502  501  0.00000000000E+00  0.00000000000E+00  0.72371858991E+02  0.72371858991E+02  0.00000000000E+00 0. -1.
         21   -1    0    0  501  502 -0.00000000000E+00 -0.00000000000E+00 -0.10839882917E+04  0.10839882917E+04  0.00000000000E+00 0. -1.
         25    1    1    2    0    0  0.87295633640E+02 -0.38887215109E+02 -0.11416618842E+03  0.19440077605E+03  0.12500000000E+03 0.  0.
         25    1    1    2    0    0 -0.19978045562E+02  0.10353415261E+03 -0.64321663388E+03  0.66367995386E+03  0.12500000000E+03 0.  0.
         25    1    1    2    0    0 -0.67317588078E+02 -0.64646937504E+02 -0.25423361037E+03  0.29827942074E+03  0.12500000000E+03 0.  0.
</event>
<event>
 5    0  0.5626800E-005  0.3576156E+03  0.7546771E-02  0.1059532E+00
         21   -1    0    0  502  501  0.00000000000E+00  0.00000000000E+00  0.22911304166E+03  0.22911304166E+03  0.00000000000E+00 0.  1.
         21   -1    0    0  501  502 -0.00000000000E+00 -0.00000000000E+00 -0.55819120512E+03  0.55819120512E+03  0.00000000000E+00 0.  1.
         25    1    1    2    0    0 -0.17889419191E+03  0.57687024883E+02 -0.17132658264E+03  0.28338793669E+03  0.12500000000E+03 0.  0.
         25    1    1    2    0    0  0.48966024899E+02 -0.16592142459E+03 -0.19647255881E+03  0.29009318692E+03  0.12500000000E+03 0.  0.
         25    1    1    2    0    0  0.12992816702E+03  0.10823439971E+03  0.38720977984E+02  0.21382312317E+03  0.12500000000E+03 0.  0.
</event>
<event>
 5    0  0.5626800E-005  0.3234128E+03  0.7546771E-02  0.1074089E+00
         21   -1    0    0  502  501  0.00000000000E+00  0.00000000000E+00  0.37937563710E+03  0.37937563710E+03  0.00000000000E+00 0.  1.
         21   -1    0    0  501  502 -0.00000000000E+00 -0.00000000000E+00 -0.27570523262E+03  0.27570523262E+03  0.00000000000E+00 0.  1.
         25    1    1    2    0    0  0.73534140549E+02 -0.59025318857E+01  0.43084701909E+02  0.15140475966E+03  0.12500000000E+03 0.  0.
         25    1    1    2    0    0  0.12236702387E+03  0.68569277359E+02 -0.10145539996E+03  0.21352665527E+03  0.12500000000E+03 0.  0.
         25    1    1    2    0    0 -0.19590116442E+03 -0.62666745473E+02  0.16204110254E+03  0.29014945480E+03  0.12500000000E+03 0.  0.
</event>
<event>
 5    0  0.6100526E-005  0.3182461E+03  0.7546771E-02  0.1076459E+00
         21   -1    0    0  502  501  0.00000000000E+00  0.00000000000E+00  0.13893427543E+03  0.13893427543E+03  0.00000000000E+00 0.  1.
         21   -1    0    0  501  502 -0.00000000000E+00 -0.00000000000E+00 -0.72898201173E+03  0.72898201173E+03  0.00000000000E+00 0.  1.
         25    1    1    2    0    0  0.13992877532E+03 -0.26293099978E+02 -0.23498032029E+03  0.30184787592E+03  0.12500000000E+03 0.  0.
         25    1    1    2    0    0 -0.71296090289E+02  0.45585432465E+02 -0.38982333520E+03  0.41802918176E+03  0.12500000000E+03 0.  0.
         25    1    1    2    0    0 -0.68632685033E+02 -0.19292332487E+02  0.34755919187E+02  0.14803922948E+03  0.12500000000E+03 0.  0.
</event>
<event>
 5    0  0.5626800E-005  0.3099109E+03  0.7546771E-02  0.1080389E+00
         21   -1    0    0  502  501  0.00000000000E+00  0.00000000000E+00  0.98741163313E+03  0.98741163313E+03  0.00000000000E+00 0. -1.
         21   -1    0    0  501  502 -0.00000000000E+00 -0.00000000000E+00 -0.97269236248E+02  0.97269236248E+02  0.00000000000E+00 0. -1.
         25    1    1    2    0    0  0.12432659123E+03  0.35393722639E+02  0.16570905272E+03  0.24452874482E+03  0.12500000000E+03 0.  0.
         25    1    1    2    0    0 -0.20732995862E+03  0.56003806153E+02  0.39142906876E+03  0.46364194581E+03  0.12500000000E+03 0.  0.
         25    1    1    2    0    0  0.83003367392E+02 -0.91397528792E+02  0.33300427539E+03  0.37651017875E+03  0.12500000000E+03 0.  0.
</event>
<event>
 5    0  0.5626800E-005  0.3631187E+03  0.7546771E-02  0.1057356E+00
         21   -1    0    0  502  501  0.00000000000E+00  0.00000000000E+00  0.87378347820E+02  0.87378347820E+02  0.00000000000E+00 0.  1.
         21   -1    0    0  501  502 -0.00000000000E+00 -0.00000000000E+00 -0.15090145400E+04  0.15090145400E+04  0.00000000000E+00 0.  1.
         25    1    1    2    0    0  0.21743611488E+03  0.48775497051E+02 -0.66585856686E+03  0.71319712859E+03  0.12500000000E+03 0.  0.
         25    1    1    2    0    0 -0.13878076428E+03 -0.50603721375E+02 -0.69845088196E+03  0.72476166542E+03  0.12500000000E+03 0.  0.
         25    1    1    2    0    0 -0.78655350603E+02  0.18282243238E+01 -0.57326743389E+02  0.15843409384E+03  0.12500000000E+03 0.  0.
</event>
<event>
 5    0  0.5626800E-005  0.3540847E+03  0.7546771E-02  0.1060951E+00
         21   -1    0    0  502  501  0.00000000000E+00  0.00000000000E+00  0.12510816922E+03  0.12510816922E+03  0.00000000000E+00 0. -1.
         21   -1    0    0  501  502 -0.00000000000E+00 -0.00000000000E+00 -0.10021404952E+04  0.10021404952E+04  0.00000000000E+00 0. -1.
         25    1    1    2    0    0  0.83048743792E+02 -0.36889665551E+02 -0.42002128425E+02  0.16014718250E+03  0.12500000000E+03 0.  0.
         25    1    1    2    0    0 -0.88004687434E+02 -0.12842102068E+03 -0.14540600688E+03  0.24699127596E+03  0.12500000000E+03 0.  0.
         25    1    1    2    0    0  0.49559436423E+01  0.16531068623E+03 -0.68962419067E+03  0.72011020595E+03  0.12500000000E+03 0.  0.
</event>
<event>
 5    0  0.5626800E-005  0.2493937E+03  0.7546771E-02  0.1113689E+00
         21   -1    0    0  502  501  0.00000000000E+00  0.00000000000E+00  0.12427285679E+04  0.12427285679E+04  0.00000000000E+00 0.  1.
         21   -1    0    0  501  502 -0.00000000000E+00 -0.00000000000E+00 -0.50048926316E+02  0.50048926316E+02  0.00000000000E+00 0.  1.
         25    1    1    2    0    0 -0.11150654804E+03  0.65119586894E+02  0.51323317584E+03  0.54378999957E+03  0.12500000000E+03 0.  0.
         25    1    1    2    0    0  0.11269048702E+03 -0.33655104105E+02  0.27186871992E+03  0.32151113942E+03  0.12500000000E+03 0.  0.
         25    1    1    2    0    0 -0.11839389763E+01 -0.31464482790E+02  0.40757774580E+03  0.42747635520E+03  0.12500000000E+03 0.  0.
</event>
<event>
 5    0  0.5626800E-005  0.4669843E+03  0.7546771E-02  0.1022775E+00
         21   -1    0    0  502  501  0.00000000000E+00  0.00000000000E+00  0.30746024564E+03  0.30746024564E+03  0.00000000000E+00 0.  1.
         21   -1    0    0  501  502 -0.00000000000E+00 -0.00000000000E+00 -0.70927655173E+03  0.70927655173E+03  0.00000000000E+00 0.  1.
         25    1    1    2    0    0 -0.22162349848E+03  0.10286416107E+03 -0.17664590948E+02  0.27501826937E+03  0.12500000000E+03 0.  0.
         25    1    1    2    0    0  0.38228862657E+03 -0.12163286483E+03 -0.31763731352E+03  0.52674245201E+03  0.12500000000E+03 0.  0.
         25    1    1    2    0    0 -0.16066512809E+03  0.18768703763E+02 -0.66514401630E+02  0.21497607599E+03  0.12500000000E+03 0.  0.
</event>
<event>
 5    0  0.5626800E-005  0.2103798E+03  0.7546771E-02  0.1141266E+00
         21   -1    0    0  502  501  0.00000000000E+00  0.00000000000E+00  0.91271629716E+02  0.91271629716E+02  0.00000000000E+00 0.  1.
         21   -1    0    0  501  502 -0.00000000000E+00 -0.00000000000E+00 -0.48492246741E+03  0.48492246741E+03  0.00000000000E+00 0.  1.
         25    1    1    2    0    0 -0.67290937409E+02  0.18840151242E+02 -0.96161518200E+02  0.17249654819E+03  0.12500000000E+03 0.  0.
         25    1    1    2    0    0  0.67936315997E+02  0.15682055511E+02 -0.15107580339E+03  0.20811095181E+03  0.12500000000E+03 0.  0.
         25    1    1    2    0    0 -0.64537858836E+00 -0.34522206752E+02 -0.14641351610E+03  0.19558659711E+03  0.12500000000E+03 0.  0.
</event>
<event>
 5    0  0.6009360E-005  0.5986377E+03  0.7546771E-02  0.9908236E-01
         21   -1    0    0  502  501  0.00000000000E+00  0.00000000000E+00  0.48758929779E+03  0.48758929779E+03  0.00000000000E+00 0.  1.
         21   -1    0    0  501  502 -0.00000000000E+00 -0.00000000000E+00 -0.73497739526E+03  0.73497739526E+03  0.00000000000E+00 0.  1.
         25    1    1    2    0    0 -0.16020873421E+03  0.33117846809E+03 -0.30400786363E+03  0.49334754220E+03  0.12500000000E+03 0.  0.
         25    1    1    2    0    0  0.22834586213E+03  0.90969103448E+02 -0.22762347906E+02  0.27669538308E+03  0.12500000000E+03 0.  0.
         25    1    1    2    0    0 -0.68137127921E+02 -0.42214757154E+03  0.79382114068E+02  0.45252376776E+03  0.12500000000E+03 0.  0.
</event>
<event>
 5    0  0.5626800E-005  0.5439026E+03  0.7546771E-02  0.1002915E+00
         21   -1    0    0  502  501  0.00000000000E+00  0.00000000000E+00  0.11059192404E+03  0.11059192404E+03  0.00000000000E+00 0. -1.
         21   -1    0    0  501  502 -0.00000000000E+00 -0.00000000000E+00 -0.26749697917E+04  0.26749697917E+04  0.00000000000E+00 0. -1.
         25    1    1    2    0    0 -0.18549894936E+03 -0.14538411036E+03 -0.90847484494E+03  0.94683575326E+03  0.12500000000E+03 0.  0.
         25    1    1    2    0    0  0.33264845332E+03 -0.19049873070E+03 -0.97929259035E+03  0.10590485057E+04  0.12500000000E+03 0.  0.
         25    1    1    2    0    0 -0.14714950396E+03  0.33588284106E+03 -0.67661043239E+03  0.77967745680E+03  0.12500000000E+03 0.  0.
</event>
<event>
 5    0  0.5626800E-005  0.3911726E+03  0.7546771E-02  0.1046880E+00
         21   -1    0    0  502  501  0.00000000000E+00  0.00000000000E+00  0.12163678088E+03  0.12163678088E+03  0.00000000000E+00 0.  1.
         21   -1    0    0  501  502 -0.00000000000E+00 -0.00000000000E+00 -0.12579746493E+04  0.12579746493E+04  0.00000000000E+00 0.  1.
         25    1    1    2    0    0 -0.90629782385E+02 -0.56290738898E+02  0.28712716959E+01  0.16436437857E+03  0.12500000000E+03 0.  0.
         25    1    1    2    0    0 -0.85296833690E+01 -0.12798344037E+03 -0.46142219400E+03  0.49496258204E+03  0.12500000000E+03 0.  0.
         25    1    1    2    0    0  0.99159465754E+02  0.18427417927E+03 -0.67778694616E+03  0.72028446962E+03  0.12500000000E+03 0.  0.
</event>
<event>
 5    0  0.5626800E-005  0.6392153E+03  0.7546771E-02  0.9827229E-01
         21   -1    0    0  502  501  0.00000000000E+00  0.00000000000E+00  0.35093766895E+03  0.35093766895E+03  0.00000000000E+00 0. -1.
         21   -1    0    0  501  502 -0.00000000000E+00 -0.00000000000E+00 -0.11642984121E+04  0.11642984121E+04  0.00000000000E+00 0. -1.
         25    1    1    2    0    0 -0.16387989694E+03  0.44870183549E+03 -0.76597976759E+03  0.91133965246E+03  0.12500000000E+03 0.  0.
         25    1    1    2    0    0  0.14336752379E+03 -0.43269965425E+03 -0.55785807328E+02  0.47594148166E+03  0.12500000000E+03 0.  0.
         25    1    1    2    0    0  0.20512373154E+02 -0.16002181232E+02  0.84048317231E+01  0.12795494697E+03  0.12500000000E+03 0.  0.
</event>
<event>
 5    0  0.5626800E-005  0.4692502E+03  0.7546771E-02  0.1022132E+00
         21   -1    0    0  502  501  0.00000000000E+00  0.00000000000E+00  0.93487495716E+03  0.93487495716E+03  0.00000000000E+00 0. -1.
         21   -1    0    0  501  502 -0.00000000000E+00 -0.00000000000E+00 -0.23553494662E+03  0.23553494662E+03  0.00000000000E+00 0. -1.
         25    1    1    2    0    0 -0.25581395737E+02  0.19536645004E+03  0.10562538558E+03  0.25613312884E+03  0.12500000000E+03 0.  0.
         25    1    1    2    0    0  0.79634061757E+02 -0.35809025179E+02  0.67297203001E+03  0.69002914666E+03  0.12500000000E+03 0.  0.
         25    1    1    2    0    0 -0.54052666020E+02 -0.15955742486E+03 -0.79257405044E+02  0.22424762828E+03  0.12500000000E+03 0.  0.
</event>
<event>
 5    0  0.5626800E-005  0.2610861E+03  0.7546771E-02  0.1106492E+00
         21   -1    0    0  502  501  0.00000000000E+00  0.00000000000E+00  0.43505000369E+02  0.43505000369E+02  0.00000000000E+00 0. -1.
         21   -1    0    0  501  502 -0.00000000000E+00 -0.00000000000E+00 -0.15668533107E+04  0.15668533107E+04  0.00000000000E+00 0. -1.
         25    1    1    2    0    0 -0.33817914285E+02 -0.12851681201E+02 -0.91825662707E+03  0.92743142614E+03  0.12500000000E+03 0.  0.
         25    1    1    2    0    0  0.73087093959E+02  0.40145575951E+02 -0.16607277554E+03  0.22396106212E+03  0.12500000000E+03 0.  0.
         25    1    1    2    0    0 -0.39269179674E+02 -0.27293894751E+02 -0.43901890768E+03  0.45896582276E+03  0.12500000000E+03 0.  0.
</event>
<event>
 5    0  0.5626800E-005  0.3740785E+03  0.7546771E-02  0.1053144E+00
         21   -1    0    0  502  501  0.00000000000E+00  0.00000000000E+00  0.16349868792E+04  0.16349868792E+04  0.00000000000E+00 0.  1.
         21   -1    0    0  501  502 -0.00000000000E+00 -0.00000000000E+00 -0.85587653667E+02  0.85587653667E+02  0.00000000000E+00 0.  1.
         25    1    1    2    0    0  0.11737823814E+03  0.39641904525E+02  0.73127121981E+03  0.75215139985E+03  0.12500000000E+03 0.  0.
         25    1    1    2    0    0  0.60422959932E+02  0.15919295674E+03  0.24102017504E+03  0.32048253672E+03  0.12500000000E+03 0.  0.
         25    1    1    2    0    0 -0.17780119808E+03 -0.19883486127E+03  0.57710783069E+03  0.64794059631E+03  0.12500000000E+03 0.  0.
</event>
<event>
 5    0  0.5626800E-005  0.3750827E+03  0.7546771E-02  0.1052766E+00
         21   -1    0    0  502  501  0.00000000000E+00  0.00000000000E+00  0.79690781137E+02  0.79690781137E+02  0.00000000000E+00 0.  1.
         21   -1    0    0  501  502 -0.00000000000E+00 -0.00000000000E+00 -0.17654119242E+04  0.17654119242E+04  0.00000000000E+00 0.  1.
         25    1    1    2    0    0 -0.15864799455E+03 -0.18684398732E+02 -0.86180275445E+03  0.88535150110E+03  0.12500000000E+03 0.  0.
         25    1    1    2    0    0  0.34352462057E+02  0.19353719603E+03 -0.29861594516E+03  0.37872578550E+03  0.12500000000E+03 0.  0.
         25    1    1    2    0    0  0.12429553249E+03 -0.17485279730E+03 -0.52530244349E+03  0.58102541877E+03  0.12500000000E+03 0.  0.
</event>
<event>
 5    0  0.5626800E-005  0.3010387E+03  0.7546771E-02  0.1084723E+00
         21   -1    0    0  502  501  0.00000000000E+00  0.00000000000E+00  0.11930617451E+04  0.11930617451E+04  0.00000000000E+00 0.  1.
         21   -1    0    0  501  502 -0.00000000000E+00 -0.00000000000E+00 -0.75959425275E+02  0.75959425275E+02  0.00000000000E+00 0.  1.
         25    1    1    2    0    0 -0.85538938318E+02  0.14787038890E+03  0.75149080348E+03  0.78073426311E+03  0.12500000000E+03 0.  0.
         25    1    1    2    0    0  0.10222025165E+03 -0.78663863478E+02  0.19471580848E+03  0.26490796390E+03  0.12500000000E+03 0.  0.
         25    1    1    2    0    0 -0.16681313334E+02 -0.69206525423E+02  0.17089570789E+03  0.22337894340E+03  0.12500000000E+03 0.  0.
</event>
<event>
 5    0  0.6013457E-005  0.3347060E+03  0.7546771E-02  0.1069073E+00
         21   -1    0    0  502  501  0.00000000000E+00  0.00000000000E+00  0.67469009074E+03  0.67469009074E+03  0.00000000000E+00 0. -1.
         21   -1    0    0  501  502 -0.00000000000E+00 -0.00000000000E+00 -0.16604382466E+03  0.16604382466E+03  0.00000000000E+00 0. -1.
         25    1    1    2    0    0  0.11718815879E+03  0.80871373326E+02  0.23225717652E+03  0.29973594985E+03  0.12500000000E+03 0.  0.
         25    1    1    2    0    0 -0.16174861477E+03  0.10932231155E+03  0.11767285213E+03  0.25997284918E+03  0.12500000000E+03 0.  0.
         25    1    1    2    0    0  0.44560455978E+02 -0.19019368488E+03  0.15871623744E+03  0.28102511637E+03  0.12500000000E+03 0.  0.
</event>
<event>
 5    0  0.6503067E-005  0.3826915E+03  0.7546771E-02  0.1049943E+00
         21   -1    0    0  502  501  0.00000000000E+00  0.00000000000E+00  0.64157864520E+03  0.64157864520E+03  0.00000000000E+00 0.  1.
         21   -1    0    0  501  502 -0.00000000000E+00 -0.00000000000E+00 -0.22826939575E+03  0.22826939575E+03  0.00000000000E+00 0.  1.
         25    1    1    2    0    0 -0.16262791360E+03  0.13860663561E+03  0.12554192791E+03  0.27757055568E+03  0.12500000000E+03 0.  0.
         25    1    1    2    0    0  0.86729068340E+02 -0.96539303965E+02 -0.77830441132E+02  0.19627619844E+03  0.12500000000E+03 0.  0.
         25    1    1    2    0    0  0.75898845256E+02 -0.42067331647E+02  0.36559776267E+03  0.39600128683E+03  0.12500000000E+03 0.  0.
</event>
<event>
 5    0  0.5626800E-005  0.2454311E+03  0.7546771E-02  0.1116227E+00
         21   -1    0    0  502  501  0.00000000000E+00  0.00000000000E+00  0.91092429068E+02  0.91092429068E+02  0.00000000000E+00 0.  1.
         21   -1    0    0  501  502 -0.00000000000E+00 -0.00000000000E+00 -0.66126719977E+03  0.66126719977E+03  0.00000000000E+00 0.  1.
         25    1    1    2    0    0 -0.95121359363E+02  0.62232169692E+02 -0.12634458480E+03  0.21097125411E+03  0.12500000000E+03 0.  0.
         25    1    1    2    0    0  0.11913872346E+03 -0.21332929943E+02 -0.28342630784E+03  0.33257270078E+03  0.12500000000E+03 0.  0.
         25    1    1    2    0    0 -0.24017364099E+02 -0.40899239750E+02 -0.16040387806E+03  0.20881567395E+03  0.12500000000E+03 0.  0.
</event>
<event>
 5    0  0.5626800E-005  0.3205012E+03  0.7546771E-02  0.1075419E+00
         21   -1    0    0  502  501  0.00000000000E+00  0.00000000000E+00  0.52049809476E+02  0.52049809476E+02  0.00000000000E+00 0. -1.
         21   -1    0    0  501  502 -0.00000000000E+00 -0.00000000000E+00 -0.19735141024E+04  0.19735141024E+04  0.00000000000E+00 0. -1.
         25    1    1    2    0    0  0.11788041999E+03 -0.12890251815E+03 -0.38612920507E+03  0.44185112381E+03  0.12500000000E+03 0.  0.
         25    1    1    2    0    0 -0.13083604147E+03 -0.24947223919E+02 -0.88758989241E+03  0.90619051576E+03  0.12500000000E+03 0.  0.
         25    1    1    2    0    0  0.12955621486E+02  0.15384974207E+03 -0.64774519543E+03  0.67752227230E+03  0.12500000000E+03 0.  0.
</event>
<event>
 5    0  0.5626800E-005  0.4300080E+03  0.7546771E-02  0.1033857E+00
         21   -1    0    0  502  501  0.00000000000E+00  0.00000000000E+00  0.14812190908E+03  0.14812190908E+03  0.00000000000E+00 0. -1.
         21   -1    0    0  501  502 -0.00000000000E+00 -0.00000000000E+00 -0.12483422606E+04  0.12483422606E+04  0.00000000000E+00 0. -1.
         25    1    1    2    0    0 -0.98030768224E+01 -0.14643848821E+03  0.37530201516E+02  0.19640225857E+03  0.12500000000E+03 0.  0.
         25    1    1    2    0    0  0.13005063683E+02  0.56471764808E+02 -0.16396444011E+03  0.21416705984E+03  0.12500000000E+03 0.  0.
         25    1    1    2    0    0 -0.32019868605E+01  0.89966723400E+02 -0.97378611288E+03  0.98589485122E+03  0.12500000000E+03 0.  0.
</event>
<event>
 5    0  0.5626800E-005  0.5095630E+03  0.7546771E-02  0.1011313E+00
         21   -1    0    0  502  501  0.00000000000E+00  0.00000000000E+00  0.15174478475E+04  0.15174478475E+04  0.00000000000E+00 0.  1.
         21   -1    0    0  501  502 -0.00000000000E+00 -0.00000000000E+00 -0.17111260413E+03  0.17111260413E+03  0.00000000000E+00 0.  1.
         25    1    1    2    0    0 -0.21481496450E+03  0.25366162080E+03  0.55003345016E+03  0.65471481054E+03  0.12500000000E+03 0.  0.
         25    1    1    2    0    0  0.10741307078E+03 -0.23198722543E+03  0.75904558378E+02  0.29452019034E+03  0.12500000000E+03 0.  0.
         25    1    1    2    0    0  0.10740189372E+03 -0.21674395368E+02  0.72039723478E+03  0.73932545071E+03  0.12500000000E+03 0.  0.
</event>
<event>
 5    0  0.5626800E-005  0.3279126E+03  0.7546771E-02  0.1072064E+00
         21   -1    0    0  502  501  0.00000000000E+00  0.00000000000E+00  0.52374465247E+03  0.52374465247E+03  0.00000000000E+00 0. -1.
         21   -1    0    0  501  502 -0.00000000000E+00 -0.00000000000E+00 -0.20530355976E+03  0.20530355976E+03  0.00000000000E+00 0. -1.
         25    1    1    2    0    0 -0.53831650118E+02  0.85943005638E+01 -0.12094415247E+03  0.18227505746E+03  0.12500000000E+03 0.  0.
         25    1    1    2    0    0  0.26679916870E+01  0.21424479871E+02  0.55030991098E+02  0.13827341212E+03  0.12500000000E+03 0.  0.
         25    1    1    2    0    0  0.51163658431E+02 -0.30018780435E+02  0.38435425408E+03  0.40849974266E+03  0.12500000000E+03 0.  0.
</event>
<event>
 5    0  0.5626800E-005  0.3649562E+03  0.7546771E-02  0.1056638E+00
         21   -1    0    0  502  501  0.00000000000E+00  0.00000000000E+00  0.62165556013E+03  0.62165556013E+03  0.00000000000E+00 0.  1.
         21   -1    0    0  501  502 -0.00000000000E+00 -0.00000000000E+00 -0.21425535271E+03  0.21425535271E+03  0.00000000000E+00 0.  1.
         25    1    1    2    0    0  0.78056549225E+02 -0.95182811909E+01 -0.12391124989E+03  0.19277557004E+03  0.12500000000E+03 0.  0.
         25    1    1    2    0    0  0.80368609771E+02 -0.37154680867E+02  0.26041701204E+03  0.30212845597E+03  0.12500000000E+03 0.  0.
         25    1    1    2    0    0 -0.15842515900E+03  0.46672962058E+02  0.27089444527E+03  0.34100688683E+03  0.12500000000E+03 0.  0.
</event>
<event>
 5    0  0.5626800E-005  0.2752038E+03  0.7546771E-02  0.1098338E+00
         21   -1    0    0  502  501  0.00000000000E+00  0.00000000000E+00  0.59203825195E+03  0.59203825195E+03  0.00000000000E+00 0.  1.
         21   -1    0    0  501  502 -0.00000000000E+00 -0.00000000000E+00 -0.12792611157E+03  0.12792611157E+03  0.00000000000E+00 0.  1.
         25    1    1    2    0    0 -0.71095811467E+02 -0.72047575755E+02  0.22753486438E+03  0.27864418545E+03  0.12500000000E+03 0.  0.
         25    1    1    2    0    0  0.93296706049E+02 -0.97376507045E+01 -0.50694604380E+01  0.15636430740E+03  0.12500000000E+03 0.  0.
         25    1    1    2    0    0 -0.22200894582E+02  0.81785226460E+02  0.24164673645E+03  0.28495587066E+03  0.12500000000E+03 0.  0.
</event>
<event>
 5    0  0.5626800E-005  0.2470132E+03  0.7546771E-02  0.1115207E+00
         21   -1    0    0  502  501  0.00000000000E+00  0.00000000000E+00  0.22116444306E+03  0.22116444306E+03  0.00000000000E+00 0.  1.
         21   -1    0    0  501  502 -0.00000000000E+00 -0.00000000000E+00 -0.27588295308E+03  0.27588295308E+03  0.00000000000E+00 0.  1.
         25    1    1    2    0    0  0.68535790748E+02  0.52732987639E+01 -0.10313036856E+03  0.17602793873E+03  0.12500000000E+03 0.  0.
         25    1    1    2    0    0 -0.52646404086E+02 -0.26075520550E+02  0.11249310831E+03  0.17813274840E+03  0.12500000000E+03 0.  0.
         25    1    1    2    0    0 -0.15889386662E+02  0.20802221786E+02 -0.64081249771E+02  0.14288670901E+03  0.12500000000E+03 0.  0.
</event>
<event>
 5    0  0.5626800E-005  0.3512483E+03  0.7546771E-02  0.1062104E+00
         21   -1    0    0  502  501  0.00000000000E+00  0.00000000000E+00  0.45852340380E+03  0.45852340380E+03  0.00000000000E+00 0. -1.
         21   -1    0    0  501  502 -0.00000000000E+00 -0.00000000000E+00 -0.26907099028E+03  0.26907099028E+03  0.00000000000E+00 0. -1.
         25    1    1    2    0    0  0.18767104227E+03  0.16881792314E+03  0.60693599770E+02  0.28814687979E+03  0.12500000000E+03 0.  0.
         25    1    1    2    0    0 -0.10992901414E+03 -0.20218184490E+03  0.12050457630E+03  0.28828499695E+03  0.12500000000E+03 0.  0.
         25    1    1    2    0    0 -0.77742028133E+02  0.33363921767E+02  0.82542374614E+01  0.15116251734E+03  0.12500000000E+03 0.  0.
</event>
<event>
 5    0  0.5626800E-005  0.6744753E+03  0.7546771E-02  0.9761907E-01
         21   -1    0    0  502  501  0.00000000000E+00  0.00000000000E+00  0.91785199658E+03  0.91785199658E+03  0.00000000000E+00 0.  1.
         21   -1    0    0  501  502 -0.00000000000E+00 -0.00000000000E+00 -0.49563210113E+03  0.49563210113E+03  0.00000000000E+00 0.  1.
         25    1    1    2    0    0 -0.35986098228E+02 -0.43328514430E+03 -0.11021694063E+03  0.46562193842E+03  0.12500000000E+03 0.  0.
         25    1    1    2    0    0  0.61768795850E+02 -0.13610961880E+03  0.85206855880E+02  0.21266504358E+03  0.12500000000E+03 0.  0.
         25    1    1    2    0    0 -0.25782697622E+02  0.56939476310E+03  0.44722998021E+03  0.73519711571E+03  0.12500000000E+03 0.  0.
</event>
<event>
 5    0  0.5626800E-005  0.2075501E+03  0.7546771E-02  0.1143521E+00
         21   -1    0    0  502  501  0.00000000000E+00  0.00000000000E+00  0.32123332964E+04  0.32123332964E+04  0.00000000000E+00 0. -1.
         21   -1    0    0  501  502 -0.00000000000E+00 -0.00000000000E+00 -0.13409892928E+02  0.13409892928E+02  0.00000000000E+00 0. -1.
         25    1    1    2    0    0 -0.39352053657E+02 -0.38357906364E+01  0.74227447639E+03  0.75376368692E+03  0.12500000000E+03 0.  0.
         25    1    1    2    0    0  0.66109665454E+02  0.24742309139E+02  0.11497207445E+04  0.11586481175E+04  0.12500000000E+03 0.  0.
         25    1    1    2    0    0 -0.26757611798E+02 -0.20906518502E+02  0.13069281826E+04  0.13133313850E+04  0.12500000000E+03 0.  0.
</event>
<event>
 5    0  0.5626800E-005  0.2451888E+03  0.7546771E-02  0.1116384E+00
         21   -1    0    0  502  501  0.00000000000E+00  0.00000000000E+00  0.69573818718E+03  0.69573818718E+03  0.00000000000E+00 0.  1.
         21   -1    0    0  501  502 -0.00000000000E+00 -0.00000000000E+00 -0.86408266677E+02  0.86408266677E+02  0.00000000000E+00 0.  1.
         25    1    1    2    0    0 -0.74523384028E+02  0.69085225682E+02  0.13951078199E+03  0.21310739421E+03  0.12500000000E+03 0.  0.
         25    1    1    2    0    0  0.10440624250E+03  0.16590198109E+02  0.20359037406E+03  0.26124689196E+03  0.12500000000E+03 0.  0.
         25    1    1    2    0    0 -0.29882858471E+02 -0.85675423791E+02  0.26622876444E+03  0.30779216769E+03  0.12500000000E+03 0.  0.
</event>
<event>
 5    0  0.5808832E-005  0.6277061E+03  0.7546771E-02  0.9849535E-01
         21   -1    0    0  502  501  0.00000000000E+00  0.00000000000E+00  0.26632271272E+03  0.26632271272E+03  0.00000000000E+00 0. -1.
         21   -1    0    0  501  502 -0.00000000000E+00 -0.00000000000E+00 -0.14794644682E+04  0.14794644682E+04  0.00000000000E+00 0. -1.
         25    1    1    2    0    0 -0.35770052426E+02  0.12597574810E+03  0.90554686938E+02  0.20242168136E+03  0.12500000000E+03 0.  0.
         25    1    1    2    0    0  0.40318607154E+03 -0.10458241881E+03 -0.74783658032E+03  0.86509019268E+03  0.12500000000E+03 0.  0.
         25    1    1    2    0    0 -0.36741601911E+03 -0.21393329288E+02 -0.55585986214E+03  0.67827530692E+03  0.12500000000E+03 0.  0.
</event>
<event>
 5    0  0.5626800E-005  0.5202182E+03  0.7546771E-02  0.1008632E+00
         21   -1    0    0  502  501  0.00000000000E+00  0.00000000000E+00  0.17173172963E+04  0.17173172963E+04  0.00000000000E+00 0. -1.
         21   -1    0    0  501  502 -0.00000000000E+00 -0.00000000000E+00 -0.15758705271E+03  0.15758705271E+03  0.00000000000E+00 0. -1.
         25    1    1    2    0    0  0.47166408360E+02 -0.22150824563E+03  0.12318479033E+04  0.12587155476E+04  0.12500000000E+03 0.  0.
         25    1    1    2    0    0 -0.16428098639E+02  0.19844349819E+03  0.40212475473E+03  0.46581007156E+03  0.12500000000E+03 0.  0.
         25    1    1    2    0    0 -0.30738309721E+02  0.23064747439E+02 -0.74242414495E+02  0.15037872978E+03  0.12500000000E+03 0.  0.
</event>
<event>
 5    0  0.5626800E-005  0.2878054E+03  0.7546771E-02  0.1091501E+00
         21   -1    0    0  502  501  0.00000000000E+00  0.00000000000E+00  0.37242609302E+03  0.37242609302E+03  0.00000000000E+00 0. -1.
         21   -1    0    0  501  502 -0.00000000000E+00 -0.00000000000E+00 -0.22241179930E+03  0.22241179930E+03  0.00000000000E+00 0. -1.
         25    1    1    2    0    0  0.69253242688E+02 -0.44764868750E+02 -0.86559940177E+02  0.17296684174E+03  0.12500000000E+03 0.  0.
         25    1    1    2    0    0 -0.14245707428E+03  0.93175439779E+01  0.18240469874E+03  0.26320582965E+03  0.12500000000E+03 0.  0.
         25    1    1    2    0    0  0.73203831591E+02  0.35447324772E+02  0.54169535158E+02  0.15866522093E+03  0.12500000000E+03 0.  0.
</event>
<event>
 5    0  0.5626800E-005  0.3192944E+03  0.7546771E-02  0.1075975E+00
         21   -1    0    0  502  501  0.00000000000E+00  0.00000000000E+00  0.85343785512E+02  0.85343785512E+02  0.00000000000E+00 0.  1.
         21   -1    0    0  501  502 -0.00000000000E+00 -0.00000000000E+00 -0.11945671887E+04  0.11945671887E+04  0.00000000000E+00 0.  1.
         25    1    1    2    0    0 -0.16562572472E+03 -0.11484762129E+03 -0.21074254786E+03  0.31726846405E+03  0.12500000000E+03 0.  0.
         25    1    1    2    0    0  0.10743728574E+03  0.19573746569E+01 -0.49001914408E+03  0.51700131842E+03  0.12500000000E+03 0.  0.
         25    1    1    2    0    0  0.58188438982E+02  0.11289024663E+03 -0.40846171122E+03  0.44564119171E+03  0.12500000000E+03 0.  0.
</event>
<event>
 5    0  0.5626800E-005  0.3807203E+03  0.7546771E-02  0.1050668E+00
         21   -1    0    0  502  501  0.00000000000E+00  0.00000000000E+00  0.92345590629E+02  0.92345590629E+02  0.00000000000E+00 0. -1.
         21   -1    0    0  501  502 -0.00000000000E+00 -0.00000000000E+00 -0.15696250414E+04  0.15696250414E+04  0.00000000000E+00 0. -1.
         25    1    1    2    0    0 -0.81721247790E+02 -0.15222995246E+03 -0.37070091429E+03  0.42766399033E+03  0.12500000000E+03 0.  0.
         25    1    1    2    0    0 -0.18450985289E+03  0.18374827148E+02 -0.46011385835E+03  0.51157725002E+03  0.12500000000E+03 0.  0.
         25    1    1    2    0    0  0.26623110068E+03  0.13385512532E+03 -0.64646467818E+03  0.72272939173E+03  0.12500000000E+03 0.  0.
</event>
<event>
 5    0  0.5626800E-005  0.4038406E+03  0.7546771E-02  0.1042458E+00
         21   -1    0    0  502  501  0.00000000000E+00  0.00000000000E+00  0.11907250376E+04  0.11907250376E+04  0.00000000000E+00 0.  1.
         21   -1    0    0  501  502 -0.00000000000E+00 -0.00000000000E+00 -0.13696466405E+03  0.13696466405E+03  0.00000000000E+00 0.  1.
         25    1    1    2    0    0 -0.11075243148E+03  0.11456483346E+03  0.42598397675E+01  0.20256936683E+03  0.12500000000E+03 0.  0.
         25    1    1    2    0    0 -0.10185891988E+02 -0.17772589021E+03  0.49889877601E+03  0.54425658760E+03  0.12500000000E+03 0.  0.
         25    1    1    2    0    0  0.12093832347E+03  0.63161056749E+02  0.55060175779E+03  0.58086374724E+03  0.12500000000E+03 0.  0.
</event>
<event>
 5    0  0.5626800E-005  0.3336178E+03  0.7546771E-02  0.1069547E+00
         21   -1    0    0  502  501  0.00000000000E+00  0.00000000000E+00  0.63031409464E+03  0.63031409464E+03  0.00000000000E+00 0.  1.
         21   -1    0    0  501  502 -0.00000000000E+00 -0.00000000000E+00 -0.17657999829E+03  0.17657999829E+03  0.00000000000E+00 0.  1.
         25    1    1    2    0    0 -0.12063167304E+03 -0.22019677850E+02  0.23973377550E+01  0.17512171191E+03  0.12500000000E+03 0.  0.
         25    1    1    2    0    0 -0.11367224274E+03  0.12361312563E+02  0.12289096869E+03  0.20928777079E+03  0.12500000000E+03 0.  0.
         25    1    1    2    0    0  0.23430391579E+03  0.96583652867E+01  0.32844578991E+03  0.42248461023E+03  0.12500000000E+03 0.  0.
</event>
<event>
 5    0  0.5626800E-005  0.3752701E+03  0.7546771E-02  0.1052696E+00
         21   -1    0    0  502  501  0.00000000000E+00  0.00000000000E+00  0.40181506890E+03  0.40181506890E+03  0.00000000000E+00 0.  1.
         21   -1    0    0  501  502 -0.00000000000E+00 -0.00000000000E+00 -0.35047867449E+03  0.35047867449E+03  0.00000000000E+00 0.  1.
         25    1    1    2    0    0  0.30739854504E+03  0.39182920219E+02  0.83817674669E+01  0.33425203179E+03  0.12500000000E+03 0.  0.
         25    1    1    2    0    0 -0.11977475934E+03  0.38228449783E+02  0.24187468178E+02  0.17893418054E+03  0.12500000000E+03 0.  0.
         25    1    1    2    0    0 -0.18762378570E+03 -0.77411370002E+02  0.18767158760E+02  0.23910753107E+03  0.12500000000E+03 0.  0.
</event>
<event>
 5    0  0.5626800E-005  0.2808979E+03  0.7546771E-02  0.1095200E+00
         21   -1    0    0  502  501  0.00000000000E+00  0.00000000000E+00  0.49924412584E+03  0.49924412584E+03  0.00000000000E+00 0.  1.
         21   -1    0    0  501  502 -0.00000000000E+00 -0.00000000000E+00 -0.15804615409E+03  0.15804615409E+03  0.00000000000E+00 0.  1.
         25    1    1    2    0    0 -0.14408214427E+03  0.30006398852E+02  0.11487681834E+03  0.22468140035E+03  0.12500000000E+03 0.  0.
         25    1    1    2    0    0 -0.29886493375E+02 -0.71767346890E+02  0.11957986813E+03  0.18965257559E+03  0.12500000000E+03 0.  0.
         25    1    1    2    0    0  0.17396863765E+03  0.41760948038E+02  0.10674128528E+03  0.24295630399E+03  0.12500000000E+03 0.  0.
</event>
<event>
 5    0  0.5626800E-005  0.2588312E+03  0.7546771E-02  0.1107847E+00
         21   -1    0    0  502  501  0.00000000000E+00  0.00000000000E+00  0.40297825667E+03  0.40297825667E+03  0.00000000000E+00 0. -1.
         21   -1    0    0  501  502 -0.00000000000E+00 -0.00000000000E+00 -0.16624621263E+03  0.16624621263E+03  0.00000000000E+00 0. -1.
         25    1    1    2    0    0  0.20592780038E+01  0.95216074136E+01  0.67235898266E+01  0.12555918244E+03  0.12500000000E+03 0.  0.
         25    1    1    2    0    0  0.63931455673E+02 -0.57661341697E+02 -0.19358284386E+02  0.15300916484E+03  0.12500000000E+03 0.  0.
         25    1    1    2    0    0 -0.65990733676E+02  0.48139734284E+02  0.24936673860E+03  0.29065612202E+03  0.12500000000E+03 0.  0.
</event>
<event>
 5    0  0.5626800E-005  0.4557682E+03  0.7546771E-02  0.1026016E+00
         21   -1    0    0  502  501  0.00000000000E+00  0.00000000000E+00  0.58679508565E+03  0.58679508565E+03  0.00000000000E+00 0. -1.
         21   -1    0    0  501  502 -0.00000000000E+00 -0.00000000000E+00 -0.35399868827E+03  0.35399868827E+03  0.00000000000E+00 0. -1.
         25    1    1    2    0    0  0.80851382655E+02 -0.20381816219E+03  0.45285772804E+03  0.51844373963E+03  0.12500000000E+03 0.  0.
         25    1    1    2    0    0 -0.72634925245E+02  0.13396956886E+03 -0.56981934946E+02  0.20517216833E+03  0.12500000000E+03 0.  0.
         25    1    1    2    0    0 -0.82164574100E+01  0.69848593329E+02 -0.16307939571E+03  0.21717786597E+03  0.12500000000E+03 0.  0.
</event>
<event>
 5    0  0.8736524E-005  0.2723962E+03  0.7546771E-02  0.1099916E+00
         21   -1    0    0  502  501  0.00000000000E+00  0.00000000000E+00  0.61461589444E+03  0.61461589444E+03  0.00000000000E+00 0. -1.
         21   -1    0    0  501  502 -0.00000000000E+00 -0.00000000000E+00 -0.12072527087E+03  0.12072527087E+03  0.00000000000E+00 0. -1.
         25    1    1    2    0    0 -0.10527177444E+03  0.10589124188E+03  0.23561328340E+03  0.30566929992E+03  0.12500000000E+03 0.  0.
         25    1    1    2    0    0  0.31518522358E+02 -0.51321701213E+02  0.23496207232E+03  0.27287269870E+03  0.12500000000E+03 0.  0.
         25    1    1    2    0    0  0.73753252081E+02 -0.54569540663E+02  0.23315267849E+02  0.15679916669E+03  0.12500000000E+03 0.  0.
</event>
<event>
 5    0  0.5626800E-005  0.3694513E+03  0.7546771E-02  0.1054903E+00
         21   -1    0    0  502  501  0.00000000000E+00  0.00000000000E+00  0.26140689953E+03  0.26140689953E+03  0.00000000000E+00 0. -1.
         21   -1    0    0  501  502 -0.00000000000E+00 -0.00000000000E+00 -0.52215251964E+03  0.52215251964E+03  0.00000000000E+00 0. -1.
         25    1    1    2    0    0 -0.69861434106E+02  0.50309964135E+02 -0.70377541182E+01  0.15194157578E+03  0.12500000000E+03 0.  0.
         25    1    1    2    0    0 -0.74577784203E+02  0.70147257767E+02  0.11564471733E+03  0.19869872751E+03  0.12500000000E+03 0.  0.
         25    1    1    2    0    0  0.14443921831E+03 -0.12045722190E+03 -0.36935258332E+03  0.43291911589E+03  0.12500000000E+03 0.  0.
</event>
<event>
 5    0  0.5626800E-005  0.2635223E+03  0.7546771E-02  0.1105045E+00
         21   -1    0    0  502  501  0.00000000000E+00  0.00000000000E+00  0.10817351924E+03  0.10817351924E+03  0.00000000000E+00 0.  1.
         21   -1    0    0  501  502 -0.00000000000E+00 -0.00000000000E+00 -0.64196840427E+03  0.64196840427E+03  0.00000000000E+00 0.  1.
         25    1    1    2    0    0  0.86764528045E+02  0.14331245107E+03 -0.18751760208E+03  0.28081024384E+03  0.12500000000E+03 0.  0.
         25    1    1    2    0    0 -0.48389815008E+01 -0.53549377286E+02 -0.10609462674E+03  0.17254570807E+03  0.12500000000E+03 0.  0.
         25    1    1    2    0    0 -0.81925546544E+02 -0.89763073785E+02 -0.24018265621E+03  0.29678597160E+03  0.12500000000E+03 0.  0.
</event>
<event>
 5    0  0.5626800E-005  0.2515339E+03  0.7546771E-02  0.1112339E+00
         21   -1    0    0  502  501  0.00000000000E+00  0.00000000000E+00  0.49705212649E+02  0.49705212649E+02  0.00000000000E+00 0. -1.
         21   -1    0    0  501  502 -0.00000000000E+00 -0.00000000000E+00 -0.12728905928E+04  0.12728905928E+04  0.00000000000E+00 0. -1.
         25    1    1    2    0    0 -0.53610049445E+02  0.81383057270E+02 -0.37469008134E+03  0.40683522029E+03  0.12500000000E+03 0.  0.
         25    1    1    2    0    0 -0.14873643524E+02  0.28721921874E+01 -0.14051276534E+03  0.18867514935E+03  0.12500000000E+03 0.  0.
         25    1    1    2    0    0  0.68483692968E+02 -0.84255249457E+02 -0.70798253348E+03  0.72708543582E+03  0.12500000000E+03 0.  0.
</event>
<event>
 5    0  0.5626800E-005  0.4341719E+03  0.7546771E-02  0.1032550E+00
         21   -1    0    0  502  501  0.00000000000E+00  0.00000000000E+00  0.13050223688E+04  0.13050223688E+04  0.00000000000E+00 0. -1.
         21   -1    0    0  501  502 -0.00000000000E+00 -0.00000000000E+00 -0.14444597167E+03  0.14444597167E+03  0.00000000000E+00 0. -1.
         25    1    1    2    0    0 -0.25304273002E+03  0.68235190835E+02  0.50253082982E+03  0.58038685323E+03  0.12500000000E+03 0.  0.
         25    1    1    2    0    0 -0.62740230921E+02 -0.14661510546E+02  0.16999833796E+02  0.14165200605E+03  0.12500000000E+03 0.  0.
         25    1    1    2    0    0  0.31578296094E+03 -0.53573680289E+02  0.64104573352E+03  0.72742948119E+03  0.12500000000E+03 0.  0.
</event>
<event>
 5    0  0.5626800E-005  0.2249360E+03  0.7546771E-02  0.1130256E+00
         21   -1    0    0  502  501  0.00000000000E+00  0.00000000000E+00  0.68497122181E+03  0.68497122181E+03  0.00000000000E+00 0.  1.
         21   -1    0    0  501  502 -0.00000000000E+00 -0.00000000000E+00 -0.73866199693E+02  0.73866199693E+02  0.00000000000E+00 0.  1.
         25    1    1    2    0    0  0.47161007954E+01 -0.26177646252E+02  0.36640043016E+03  0.38804869023E+03  0.12500000000E+03 0.  0.
         25    1    1    2    0    0 -0.61289850767E+02  0.18773204427E+02  0.11064397795E+03  0.17881825653E+03  0.12500000000E+03 0.  0.
         25    1    1    2    0    0  0.56573749972E+02  0.74044418244E+01  0.13406061401E+03  0.19197047474E+03  0.12500000000E+03 0.  0.
</event>
<event>
 5    0  0.5626800E-005  0.3860095E+03  0.7546771E-02  0.1048735E+00
         21   -1    0    0  502  501  0.00000000000E+00  0.00000000000E+00  0.45514447749E+03  0.45514447749E+03  0.00000000000E+00 0.  1.
         21   -1    0    0  501  502 -0.00000000000E+00 -0.00000000000E+00 -0.32737584508E+03  0.32737584508E+03  0.00000000000E+00 0.  1.
         25    1    1    2    0    0 -0.23530692073E+03 -0.32399135337E+02  0.41996447066E+02  0.27167582241E+03  0.12500000000E+03 0.  0.
         25    1    1    2    0    0 -0.86240470401E+02 -0.20564290726E+02  0.92815774424E+01  0.15352998557E+03  0.12500000000E+03 0.  0.
         25    1    1    2    0    0  0.32154739113E+03  0.52963426063E+02  0.76490607894E+02  0.35731451460E+03  0.12500000000E+03 0.  0.
</event>
<event>
 5    0  0.5626800E-005  0.2332366E+03  0.7546771E-02  0.1124382E+00
         21   -1    0    0  502  501  0.00000000000E+00  0.00000000000E+00  0.12292603396E+03  0.12292603396E+03  0.00000000000E+00 0. -1.
         21   -1    0    0  501  502 -0.00000000000E+00 -0.00000000000E+00 -0.44253704194E+03  0.44253704194E+03  0.00000000000E+00 0. -1.
         25    1    1    2    0    0  0.80043780332E+02  0.94475977130E+01 -0.16153997838E+03  0.21958239567E+03  0.12500000000E+03 0.  0.
         25    1    1    2    0    0 -0.77547157388E+02  0.66131524770E+02 -0.90187871118E+02  0.18478580109E+03  0.12500000000E+03 0.  0.
         25    1    1    2    0    0 -0.24966229444E+01 -0.75579122483E+02 -0.67883158486E+02  0.16109487915E+03  0.12500000000E+03 0.  0.
</event>
<event>
 5    0  0.5626800E-005  0.3095613E+03  0.7546771E-02  0.1080556E+00
         21   -1    0    0  502  501  0.00000000000E+00  0.00000000000E+00  0.21728008927E+03  0.21728008927E+03  0.00000000000E+00 0. -1.
         21   -1    0    0  501  502 -0.00000000000E+00 -0.00000000000E+00 -0.44103533935E+03  0.44103533935E+03  0.00000000000E+00 0. -1.
         25    1    1    2    0    0  0.14594594997E+03 -0.34297775961E+02 -0.28166031643E+03  0.34268657925E+03  0.12500000000E+03 0.  0.
         25    1    1    2    0    0 -0.90071002149E+02  0.47131440065E+02  0.73757056373E+02  0.17719836747E+03  0.12500000000E+03 0.  0.
         25    1    1    2    0    0 -0.55874947823E+02 -0.12833664105E+02 -0.15851990021E+02  0.13843048189E+03  0.12500000000E+03 0.  0.
</event>
<event>
 5    0  0.5626800E-005  0.5194112E+03  0.7546771E-02  0.1008833E+00
         21   -1    0    0  502  501  0.00000000000E+00  0.00000000000E+00  0.65949727117E+03  0.65949727117E+03  0.00000000000E+00 0.  1.
         21   -1    0    0  501  502 -0.00000000000E+00 -0.00000000000E+00 -0.40908128645E+03  0.40908128645E+03  0.00000000000E+00 0.  1.
         25    1    1    2    0    0  0.13748917249E+01  0.37717520623E+01 -0.39396899061E+02  0.13112296556E+03  0.12500000000E+03 0.  0.
         25    1    1    2    0    0  0.41531079561E+03  0.69087116522E+02  0.21886414455E+03  0.49069603665E+03  0.12500000000E+03 0.  0.
         25    1    1    2    0    0 -0.41668568733E+03 -0.72858868585E+02  0.70948739240E+02  0.44675955542E+03  0.12500000000E+03 0.  0.
</event>
<event>
 5    0  0.5626800E-005  0.2712263E+03  0.7546771E-02  0.1100580E+00
         21   -1    0    0  502  501  0.00000000000E+00  0.00000000000E+00  0.82779187622E+03  0.82779187622E+03  0.00000000000E+00 0. -1.
         21   -1    0    0  501  502 -0.00000000000E+00 -0.00000000000E+00 -0.88867364479E+02  0.88867364479E+02  0.00000000000E+00 0. -1.
         25    1    1    2    0    0  0.22265940633E+02 -0.11217002084E+03  0.22798421494E+03  0.28404170108E+03  0.12500000000E+03 0.  0.
         25    1    1    2    0    0  0.80272842062E+02  0.13210611557E+03  0.35629060080E+03  0.40799969015E+03  0.12500000000E+03 0.  0.
         25    1    1    2    0    0 -0.10253878270E+03 -0.19936094724E+02  0.15464969600E+03  0.22461784947E+03  0.12500000000E+03 0.  0.
</event>
<event>
 5    0  0.5626800E-005  0.2817736E+03  0.7546771E-02  0.1094724E+00
         21   -1    0    0  502  501  0.00000000000E+00  0.00000000000E+00  0.29684429630E+03  0.29684429630E+03  0.00000000000E+00 0. -1.
         21   -1    0    0  501  502 -0.00000000000E+00 -0.00000000000E+00 -0.26746805116E+03  0.26746805116E+03  0.00000000000E+00 0. -1.
         25    1    1    2    0    0  0.43229248992E+02 -0.14177259088E+03  0.13421265866E+03  0.23580982430E+03  0.12500000000E+03 0.  0.
         25    1    1    2    0    0 -0.67095905786E+02  0.68503207897E+02 -0.88644710920E+02  0.18076900962E+03  0.12500000000E+03 0.  0.
         25    1    1    2    0    0  0.23866656794E+02  0.73269382984E+02 -0.16191702593E+02  0.14773351354E+03  0.12500000000E+03 0.  0.
</event>
<event>
 5    0  0.5626800E-005  0.2372093E+03  0.7546771E-02  0.1121666E+00
         21   -1    0    0  502  501  0.00000000000E+00  0.00000000000E+00  0.22413271476E+03  0.22413271476E+03  0.00000000000E+00 0.  1.
         21   -1    0    0  501  502 -0.00000000000E+00 -0.00000000000E+00 -0.25104880222E+03  0.25104880222E+03  0.00000000000E+00 0.  1.
         25    1    1    2    0    0 -0.17813421101E+01 -0.59014756867E+02  0.86616166825E+02  0.16313575654E+03  0.12500000000E+03 0.  0.
         25    1    1    2    0    0 -0.35889048286E+02  0.47398032963E+02 -0.11653600469E+03  0.18094263650E+03  0.12500000000E+03 0.  0.
         25    1    1    2    0    0  0.37670390396E+02  0.11616723904E+02  0.30037504032E+01  0.13110312393E+03  0.12500000000E+03 0.  0.
</event>
<event>
 5    0  0.5626800E-005  0.2974063E+03  0.7546771E-02  0.1086544E+00
         21   -1    0    0  502  501  0.00000000000E+00  0.00000000000E+00  0.21249888286E+03  0.21249888286E+03  0.00000000000E+00 0. -1.
         21   -1    0    0  501  502 -0.00000000000E+00 -0.00000000000E+00 -0.41623993526E+03  0.41623993526E+03  0.00000000000E+00 0. -1.
         25    1    1    2    0    0 -0.18826050225E+02  0.11980175501E+03 -0.44362923608E+01  0.17421699504E+03  0.12500000000E+03 0.  0.
         25    1    1    2    0    0 -0.10981759160E+03 -0.15043047178E+03 -0.13344940126E+03  0.26100377959E+03  0.12500000000E+03 0.  0.
         25    1    1    2    0    0  0.12864364183E+03  0.30628716770E+02 -0.65855358775E+02  0.19351804348E+03  0.12500000000E+03 0.  0.
</event>
<event>
 5    0  0.5626800E-005  0.2532777E+03  0.7546771E-02  0.1111251E+00
         21   -1    0    0  502  501  0.00000000000E+00  0.00000000000E+00  0.11420796033E+04  0.11420796033E+04  0.00000000000E+00 0. -1.
         21   -1    0    0  501  502 -0.00000000000E+00 -0.00000000000E+00 -0.56169101642E+02  0.56169101642E+02  0.00000000000E+00 0. -1.
         25    1    1    2    0    0 -0.14760153120E+03  0.19916642511E+02  0.41352018346E+03  0.45695385630E+03  0.12500000000E+03 0.  0.
         25    1    1    2    0    0  0.37358268957E+02  0.23248917173E+02  0.37417906100E+03  0.39695229197E+03  0.12500000000E+03 0.  0.
         25    1    1    2    0    0  0.11024326224E+03 -0.43165559684E+02  0.29821125717E+03  0.34434255664E+03  0.12500000000E+03 0.  0.
</event>
<event>
 5    0  0.5901551E-005  0.2883206E+03  0.7546771E-02  0.1091229E+00
         21   -1    0    0  502  501  0.00000000000E+00  0.00000000000E+00  0.73219847155E+02  0.73219847155E+02  0.00000000000E+00 0.  1.
         21   -1    0    0  501  502 -0.00000000000E+00 -0.00000000000E+00 -0.11353311759E+04  0.11353311759E+04  0.00000000000E+00 0.  1.
         25    1    1    2    0    0 -0.71323397970E+02 -0.84285742524E+02 -0.23976406214E+03  0.29206663450E+03  0.12500000000E+03 0.  0.
         25    1    1    2    0    0  0.11228039558E+03  0.13332307290E+03 -0.26089053903E+03  0.33774369329E+03  0.12500000000E+03 0.  0.
         25    1    1    2    0    0 -0.40956997613E+02 -0.49037330379E+02 -0.56145672753E+03  0.57874069523E+03  0.12500000000E+03 0.  0.
</event>
<event>
 5    0  0.5626800E-005  0.3967646E+03  0.7546771E-02  0.1044906E+00
         21   -1    0    0  502  501  0.00000000000E+00  0.00000000000E+00  0.33522601441E+03  0.33522601441E+03  0.00000000000E+00 0. -1.
         21   -1    0    0  501  502 -0.00000000000E+00 -0.00000000000E+00 -0.46959992398E+03  0.46959992398E+03  0.00000000000E+00 0. -1.
         25    1    1    2    0    0 -0.20576525851E+03 -0.18300995593E+03  0.71680002584E+02  0.31079737507E+03  0.12500000000E+03 0.  0.
         25    1    1    2    0    0 -0.20128740067E+02  0.94204148626E+02 -0.10424285931E+02  0.15815578880E+03  0.12500000000E+03 0.  0.
         25    1    1    2    0    0  0.22589399858E+03  0.88805807303E+02 -0.19562962622E+03  0.33587277451E+03  0.12500000000E+03 0.  0.
</event>
<event>
 5    0  0.5626800E-005  0.5514876E+03  0.7546771E-02  0.1001150E+00
         21   -1    0    0  502  501  0.00000000000E+00  0.00000000000E+00  0.53992577968E+03  0.53992577968E+03  0.00000000000E+00 0.  1.
         21   -1    0    0  501  502 -0.00000000000E+00 -0.00000000000E+00 -0.56329700092E+03  0.56329700092E+03  0.00000000000E+00 0.  1.
         25    1    1    2    0    0 -0.70137159301E+02 -0.17884321066E+03  0.69229839378E+02  0.23941989427E+03  0.12500000000E+03 0.  0.
         25    1    1    2    0    0 -0.48088549415E+02  0.15692045385E+03 -0.43418557904E+03  0.48070641193E+03  0.12500000000E+03 0.  0.
         25    1    1    2    0    0  0.11822570872E+03  0.21922756808E+02  0.34158451842E+03  0.38309647439E+03  0.12500000000E+03 0.  0.
</event>
<event>
 5    0  0.5626800E-005  0.3019673E+03  0.7546771E-02  0.1084261E+00
         21   -1    0    0  502  501  0.00000000000E+00  0.00000000000E+00  0.11000561065E+04  0.11000561065E+04  0.00000000000E+00 0.  1.
         21   -1    0    0  501  502 -0.00000000000E+00 -0.00000000000E+00 -0.82890558648E+02  0.82890558648E+02  0.00000000000E+00 0.  1.
         25    1    1    2    0    0 -0.31224643624E+02 -0.14022622209E+03  0.12056216051E+03  0.22538546155E+03  0.12500000000E+03 0.  0.
         25    1    1    2    0    0 -0.39979282584E+02  0.87057544789E+02  0.27104923126E+03  0.31348053354E+03  0.12500000000E+03 0.  0.
         25    1    1    2    0    0  0.71203926209E+02  0.53168677304E+02  0.62555415610E+03  0.64408067008E+03  0.12500000000E+03 0.  0.
</event>
<event>
 5    0  0.5626800E-005  0.2388195E+03  0.7546771E-02  0.1120582E+00
         21   -1    0    0  502  501  0.00000000000E+00  0.00000000000E+00  0.23931952061E+04  0.23931952061E+04  0.00000000000E+00 0. -1.
         21   -1    0    0  501  502 -0.00000000000E+00 -0.00000000000E+00 -0.23832055367E+02  0.23832055367E+02  0.00000000000E+00 0. -1.
         25    1    1    2    0    0 -0.85016933811E+01 -0.77445931837E+02  0.87788746617E+03  0.89015816258E+03  0.12500000000E+03 0.  0.
         25    1    1    2    0    0  0.79692019742E+02  0.55955315140E+02  0.10541227688E+04  0.10659651153E+04  0.12500000000E+03 0.  0.
         25    1    1    2    0    0 -0.71190326361E+02  0.21490616697E+02  0.43735291573E+03  0.46090398357E+03  0.12500000000E+03 0.  0.
</event>
<event>
 5    0  0.5626800E-005  0.2365136E+03  0.7546771E-02  0.1122137E+00
         21   -1    0    0  502  501  0.00000000000E+00  0.00000000000E+00  0.39664791495E+02  0.39664791495E+02  0.00000000000E+00 0. -1.
         21   -1    0    0  501  502 -0.00000000000E+00 -0.00000000000E+00 -0.14102857684E+04  0.14102857684E+04  0.00000000000E+00 0. -1.
         25    1    1    2    0    0 -0.37882890165E+02 -0.53110203518E+02 -0.59331620823E+03  0.60984008562E+03  0.12500000000E+03 0.  0.
         25    1    1    2    0    0 -0.19165418078E+02 -0.46154315599E+02 -0.22316405501E+03  0.26062373174E+03  0.12500000000E+03 0.  0.
         25    1    1    2    0    0  0.57048308242E+02  0.99264519117E+02 -0.55414071369E+03  0.57948674256E+03  0.12500000000E+03 0.  0.
</event>
<event>
 5    0  0.5626800E-005  0.3927806E+03  0.7546771E-02  0.1046309E+00
         21   -1    0    0  502  501  0.00000000000E+00  0.00000000000E+00  0.33899712798E+03  0.33899712798E+03  0.00000000000E+00 0. -1.
         21   -1    0    0  501  502 -0.00000000000E+00 -0.00000000000E+00 -0.45509697430E+03  0.45509697430E+03  0.00000000000E+00 0. -1.
         25    1    1    2    0    0 -0.16955584441E+03  0.10483164794E+03  0.30053781994E+02  0.23720684770E+03  0.12500000000E+03 0.  0.
         25    1    1    2    0    0  0.52930463046E+02 -0.25736018704E+03 -0.15081729598E+03  0.32772970045E+03  0.12500000000E+03 0.  0.
         25    1    1    2    0    0  0.11662538136E+03  0.15252853910E+03  0.46636676634E+01  0.22915755413E+03  0.12500000000E+03 0.  0.
</event>
<event>
 5    0  0.5626800E-005  0.2335437E+03  0.7546771E-02  0.1124170E+00
         21   -1    0    0  502  501  0.00000000000E+00  0.00000000000E+00  0.11699442735E+04  0.11699442735E+04  0.00000000000E+00 0. -1.
         21   -1    0    0  501  502 -0.00000000000E+00 -0.00000000000E+00 -0.46619880773E+02  0.46619880773E+02  0.00000000000E+00 0. -1.
         25    1    1    2    0    0  0.76454896587E+02 -0.64328185729E+02  0.39725901238E+03  0.42827933595E+03  0.12500000000E+03 0.  0.
         25    1    1    2    0    0 -0.35159453367E+02  0.86937970008E+02  0.51779985934E+03  0.54086605747E+03  0.12500000000E+03 0.  0.
         25    1    1    2    0    0 -0.41295443220E+02 -0.22609784279E+02  0.20826552098E+03  0.24741876082E+03  0.12500000000E+03 0.  0.
</event>
<event>
 5    0  0.5626800E-005  0.2594305E+03  0.7546771E-02  0.1107486E+00
         21   -1    0    0  502  501  0.00000000000E+00  0.00000000000E+00  0.55123558368E+03  0.55123558368E+03  0.00000000000E+00 0.  1.
         21   -1    0    0  501  502 -0.00000000000E+00 -0.00000000000E+00 -0.12209690711E+03  0.12209690711E+03  0.00000000000E+00 0.  1.
         25    1    1    2    0    0 -0.53696218646E+02  0.60244757117E+02  0.24947611750E+03  0.29047555467E+03  0.12500000000E+03 0.  0.
         25    1    1    2    0    0  0.10132558853E+03 -0.90133196700E+02  0.43163603494E+02  0.18941743506E+03  0.12500000000E+03 0.  0.
         25    1    1    2    0    0 -0.47629369883E+02  0.29888439584E+02  0.13649895558E+03  0.19343950106E+03  0.12500000000E+03 0.  0.
</event>
<event>
 5    0  0.5626800E-005  0.3271387E+03  0.7546771E-02  0.1072410E+00
         21   -1    0    0  502  501  0.00000000000E+00  0.00000000000E+00  0.11725744266E+04  0.11725744266E+04  0.00000000000E+00 0.  1.
         21   -1    0    0  501  502 -0.00000000000E+00 -0.00000000000E+00 -0.91269009741E+02  0.91269009741E+02  0.00000000000E+00 0.  1.
         25    1    1    2    0    0 -0.13963912344E+02  0.82263337988E+02  0.16949403233E+03  0.22652919154E+03  0.12500000000E+03 0.  0.
         25    1    1    2    0    0  0.18658997156E+03  0.45114216348E+02  0.57437782859E+03  0.61837367342E+03  0.12500000000E+03 0.  0.
         25    1    1    2    0    0 -0.17262605922E+03 -0.12737755434E+03  0.33743355591E+03  0.41894057135E+03  0.12500000000E+03 0.  0.
</event>
<event>
 5    0  0.5626800E-005  0.5165984E+03  0.7546771E-02  0.1009535E+00
         21   -1    0    0  502  501  0.00000000000E+00  0.00000000000E+00  0.11233961262E+04  0.11233961262E+04  0.00000000000E+00 0.  1.
         21   -1    0    0  501  502 -0.00000000000E+00 -0.00000000000E+00 -0.23755991620E+03  0.23755991620E+03  0.00000000000E+00 0.  1.
         25    1    1    2    0    0 -0.89107526222E+01 -0.82182034997E+02  0.38674955123E+03  0.41476921748E+03  0.12500000000E+03 0.  0.
         25    1    1    2    0    0 -0.31635763991E+03  0.14594555814E+03  0.45904329934E+03  0.58968467246E+03  0.12500000000E+03 0.  0.
         25    1    1    2    0    0  0.32526839253E+03 -0.63763523140E+02  0.40043359422E+02  0.35650215244E+03  0.12500000000E+03 0.  0.
</event>
<event>
 5    0  0.7088609E-005  0.5289314E+03  0.7546771E-02  0.1006492E+00
         21   -1    0    0  502  501  0.00000000000E+00  0.00000000000E+00  0.66601603724E+03  0.66601603724E+03  0.00000000000E+00 0. -1.
         21   -1    0    0  501  502 -0.00000000000E+00 -0.00000000000E+00 -0.42006252583E+03  0.42006252583E+03  0.00000000000E+00 0. -1.
         25    1    1    2    0    0  0.95953304774E+02  0.84669832565E+02 -0.25119591921E+03  0.30838353891E+03  0.12500000000E+03 0.  0.
         25    1    1    2    0    0 -0.19574076907E+02  0.19592712738E+03  0.36831062240E+03  0.43594529279E+03  0.12500000000E+03 0.  0.
         25    1    1    2    0    0 -0.76379227867E+02 -0.28059695995E+03  0.12883880823E+03  0.34174973136E+03  0.12500000000E+03 0.  0.
</event>
<event>
 5    0  0.5626800E-005  0.5690743E+03  0.7546771E-02  0.9971729E-01
         21   -1    0    0  502  501  0.00000000000E+00  0.00000000000E+00  0.93665260768E+03  0.93665260768E+03  0.00000000000E+00 0. -1.
         21   -1    0    0  501  502 -0.00000000000E+00 -0.00000000000E+00 -0.34574776832E+03  0.34574776832E+03  0.00000000000E+00 0. -1.
         25    1    1    2    0    0  0.24751308783E+03 -0.42301495871E+03  0.31759184771E+03  0.59723861703E+03  0.12500000000E+03 0.  0.
         25    1    1    2    0    0 -0.53755122114E+02  0.34715468624E+03  0.23138748686E+03  0.43882930441E+03  0.12500000000E+03 0.  0.
         25    1    1    2    0    0 -0.19375796572E+03  0.75860272470E+02  0.41925504799E+02  0.24633245456E+03  0.12500000000E+03 0.  0.
</event>
<event>
 5    0  0.5626800E-005  0.3891231E+03  0.7546771E-02  0.1047612E+00
         21   -1    0    0  502  501  0.00000000000E+00  0.00000000000E+00  0.21822083270E+03  0.21822083270E+03  0.00000000000E+00 0.  1.
         21   -1    0    0  501  502 -0.00000000000E+00 -0.00000000000E+00 -0.69386969191E+03  0.69386969191E+03  0.00000000000E+00 0.  1.
         25    1    1    2    0    0  0.16706051766E+03  0.19635305148E+03 -0.27029071445E+03  0.39388552614E+03  0.12500000000E+03 0.  0.
         25    1    1    2    0    0 -0.88673667634E+02 -0.26208683734E+03 -0.18467119559E+03  0.35536035249E+03  0.12500000000E+03 0.  0.
         25    1    1    2    0    0 -0.78386850025E+02  0.65733785860E+02 -0.20686949167E+02  0.16284464599E+03  0.12500000000E+03 0.  0.
</event>
<event>
 5    0  0.5626800E-005  0.2687658E+03  0.7546771E-02  0.1101988E+00
         21   -1    0    0  502  501  0.00000000000E+00  0.00000000000E+00  0.10889081707E+04  0.10889081707E+04  0.00000000000E+00 0.  1.
         21   -1    0    0  501  502 -0.00000000000E+00 -0.00000000000E+00 -0.66337125591E+02  0.66337125591E+02  0.00000000000E+00 0.  1.
         25    1    1    2    0    0  0.52698595334E+02 -0.49016133348E+02  0.62354523448E+03  0.64001045516E+03  0.12500000000E+03 0.  0.
         25    1    1    2    0    0 -0.49198898370E+02  0.11609814339E+03  0.17002628317E+03  0.24583174626E+03  0.12500000000E+03 0.  0.
         25    1    1    2    0    0 -0.34996969638E+01 -0.67082010046E+02  0.22899952751E+03  0.26940309491E+03  0.12500000000E+03 0.  0.
</event>
<event>
 5    0  0.5626800E-005  0.4609897E+03  0.7546771E-02  0.1024495E+00
         21   -1    0    0  502  501  0.00000000000E+00  0.00000000000E+00  0.16548663447E+04  0.16548663447E+04  0.00000000000E+00 0. -1.
         21   -1    0    0  501  502 -0.00000000000E+00 -0.00000000000E+00 -0.12841612417E+03  0.12841612417E+03  0.00000000000E+00 0. -1.
         25    1    1    2    0    0  0.19053040588E+02 -0.41860791520E+01  0.48332506372E+03  0.49960850557E+03  0.12500000000E+03 0.  0.
         25    1    1    2    0    0 -0.34697613818E+03  0.10391146750E+03  0.52199166837E+03  0.64752632023E+03  0.12500000000E+03 0.  0.
         25    1    1    2    0    0  0.32792309759E+03 -0.99725388343E+02  0.52113348841E+03  0.63614764305E+03  0.12500000000E+03 0.  0.
</event>
<event>
 5    0  0.5626800E-005  0.4294583E+03  0.7546771E-02  0.1034031E+00
         21   -1    0    0  502  501  0.00000000000E+00  0.00000000000E+00  0.13490595619E+04  0.13490595619E+04  0.00000000000E+00 0. -1.
         21   -1    0    0  501  502 -0.00000000000E+00 -0.00000000000E+00 -0.13671335603E+03  0.13671335603E+03  0.00000000000E+00 0.  1.
         25    1    1    2    0    0  0.62271372428E+02  0.28776253147E+03  0.34586049309E+03  0.47109391741E+03  0.12500000000E+03 0.  0.
         25    1    1    2    0    0  0.54052893605E+02 -0.30799234338E+03  0.43445264912E+03  0.54968636804E+03  0.12500000000E+03 0.  0.
         25    1    1    2    0    0 -0.11632426603E+03  0.20229811912E+02  0.43203306364E+03  0.46499263246E+03  0.12500000000E+03 0.  0.
</event>
<event>
 5    0  0.5626800E-005  0.2906979E+03  0.7546771E-02  0.1089985E+00
         21   -1    0    0  502  501  0.00000000000E+00  0.00000000000E+00  0.20941440551E+03  0.20941440551E+03  0.00000000000E+00 0.  1.
         21   -1    0    0  501  502 -0.00000000000E+00 -0.00000000000E+00 -0.40353131900E+03  0.40353131900E+03  0.00000000000E+00 0.  1.
         25    1    1    2    0    0 -0.30386181022E+02  0.18176220834E+03 -0.13995642179E+03  0.26300878384E+03  0.12500000000E+03 0.  0.
         25    1    1    2    0    0  0.16323179256E+02 -0.67928770394E+01 -0.45756869482E+02  0.13428060346E+03  0.12500000000E+03 0.  0.
         25    1    1    2    0    0  0.14063001766E+02 -0.17496933130E+03 -0.84036222200E+01  0.21565633722E+03  0.12500000000E+03 0.  0.
</event>
<event>
 5    0  0.5626800E-005  0.3204899E+03  0.7546771E-02  0.1075424E+00
         21   -1    0    0  502  501  0.00000000000E+00  0.00000000000E+00  0.26396470476E+03  0.26396470476E+03  0.00000000000E+00 0.  1.
         21   -1    0    0  501  502 -0.00000000000E+00 -0.00000000000E+00 -0.38911946674E+03  0.38911946674E+03  0.00000000000E+00 0.  1.
         25    1    1    2    0    0 -0.10635336450E+03  0.64554360758E+02 -0.23205071328E+03  0.29146326898E+03  0.12500000000E+03 0.  0.
         25    1    1    2    0    0  0.85220865336E+02 -0.13145095080E+03  0.79915623678E+02  0.21576249735E+03  0.12500000000E+03 0.  0.
         25    1    1    2    0    0  0.21132499159E+02  0.66896590041E+02  0.26980327622E+02  0.14585840517E+03  0.12500000000E+03 0.  0.
</event>
<event>
 5    0  0.5626800E-005  0.2558435E+03  0.7546771E-02  0.1109667E+00
         21   -1    0    0  502  501  0.00000000000E+00  0.00000000000E+00  0.45492282809E+02  0.45492282809E+02  0.00000000000E+00 0. -1.
         21   -1    0    0  501  502 -0.00000000000E+00 -0.00000000000E+00 -0.14388354883E+04  0.14388354883E+04  0.00000000000E+00 0. -1.
         25    1    1    2    0    0 -0.33428038543E+02 -0.89075224618E+02 -0.33829790564E+03  0.37299102182E+03  0.12500000000E+03 0.  0.
         25    1    1    2    0    0 -0.14283093743E+02 -0.67476209799E+02 -0.40271701441E+03  0.42727396287E+03  0.12500000000E+03 0.  0.
         25    1    1    2    0    0  0.47711132286E+02  0.15655143442E+03 -0.65232828543E+03  0.68406278640E+03  0.12500000000E+03 0.  0.
</event>
<event>
 5    0  0.5626800E-005  0.2755086E+03  0.7546771E-02  0.1098168E+00
         21   -1    0    0  502  501  0.00000000000E+00  0.00000000000E+00  0.55041725861E+03  0.55041725861E+03  0.00000000000E+00 0.  1.
         21   -1    0    0  501  502 -0.00000000000E+00 -0.00000000000E+00 -0.13790448475E+03  0.13790448475E+03  0.00000000000E+00 0.  1.
         25    1    1    2    0    0 -0.20626150977E+02 -0.40590496673E+02  0.55713166280E+02  0.14422892713E+03  0.12500000000E+03 0.  0.
         25    1    1    2    0    0  0.22158192142E+01 -0.74963228215E+02 -0.28133295910E+01  0.14579886921E+03  0.12500000000E+03 0.  0.
         25    1    1    2    0    0  0.18410331763E+02  0.11555372489E+03  0.35961293718E+03  0.39829394702E+03  0.12500000000E+03 0.  0.
</event>
<event>
 5    0  0.5626800E-005  0.2388171E+03  0.7546771E-02  0.1120583E+00
         21   -1    0    0  502  501  0.00000000000E+00  0.00000000000E+00  0.64605438091E+02  0.64605438091E+02  0.00000000000E+00 0.  1.
         21   -1    0    0  501  502 -0.00000000000E+00 -0.00000000000E+00 -0.88279897183E+03  0.88279897183E+03  0.00000000000E+00 0.  1.
         25    1    1    2    0    0 -0.88537522296E+02  0.40516853137E+02 -0.28530549255E+03  0.32635062788E+03  0.12500000000E+03 0.  0.
         25    1    1    2    0    0  0.48684714612E+02 -0.15490976623E+02 -0.10001222195E+03  0.16804051991E+03  0.12500000000E+03 0.  0.
         25    1    1    2    0    0  0.39852807685E+02 -0.25025876514E+02 -0.43287581924E+03  0.45301326212E+03  0.12500000000E+03 0.  0.
</event>
<event>
 5    0  0.5626800E-005  0.2554819E+03  0.7546771E-02  0.1109889E+00
         21   -1    0    0  502  501  0.00000000000E+00  0.00000000000E+00  0.64750746371E+02  0.64750746371E+02  0.00000000000E+00 0. -1.
         21   -1    0    0  501  502 -0.00000000000E+00 -0.00000000000E+00 -0.10080349134E+04  0.10080349134E+04  0.00000000000E+00 0. -1.
         25    1    1    2    0    0 -0.20419500462E+02  0.23288896183E+02 -0.57868909263E+02  0.14118477023E+03  0.12500000000E+03 0.  0.
         25    1    1    2    0    0 -0.57309430821E+02 -0.16549586996E+02 -0.50487626789E+03  0.52352966064E+03  0.12500000000E+03 0.  0.
         25    1    1    2    0    0  0.77728931282E+02 -0.67393091871E+01 -0.38053898992E+03  0.40807122895E+03  0.12500000000E+03 0.  0.
</event>
<event>
 5    0  0.5626800E-005  0.6423502E+03  0.7546771E-02  0.9821240E-01
         21   -1    0    0  502  501  0.00000000000E+00  0.00000000000E+00  0.99437106509E+03  0.99437106509E+03  0.00000000000E+00 0. -1.
         21   -1    0    0  501  502 -0.00000000000E+00 -0.00000000000E+00 -0.41494944457E+03  0.41494944457E+03  0.00000000000E+00 0. -1.
         25    1    1    2    0    0 -0.37608589616E+03 -0.16258309709E+03  0.66855956414E+03  0.79402188606E+03  0.12500000000E+03 0.  0.
         25    1    1    2    0    0  0.37800779785E+03  0.20233926249E+03  0.16438254101E+02  0.44690747206E+03  0.12500000000E+03 0.  0.
         25    1    1    2    0    0 -0.19219016956E+01 -0.39756165400E+02 -0.10557619772E+03  0.16839115154E+03  0.12500000000E+03 0.  0.
</event>
<event>
 5    0  0.5626800E-005  0.2751126E+03  0.7546771E-02  0.1098389E+00
         21   -1    0    0  502  501  0.00000000000E+00  0.00000000000E+00  0.77100631319E+03  0.77100631319E+03  0.00000000000E+00 0. -1.
         21   -1    0    0  501  502 -0.00000000000E+00 -0.00000000000E+00 -0.98166438988E+02  0.98166438988E+02  0.00000000000E+00 0. -1.
         25    1    1    2    0    0 -0.67533271580E+02 -0.90699460062E+02  0.11891790168E+03  0.20628524466E+03  0.12500000000E+03 0.  0.
         25    1    1    2    0    0 -0.54450434302E+02 -0.32948229992E+02  0.14736141487E+03  0.20344734515E+03  0.12500000000E+03 0.  0.
         25    1    1    2    0    0  0.12198370588E+03  0.12364769005E+03  0.40656055765E+03  0.45944016236E+03  0.12500000000E+03 0.  0.
</event>
<event>
 5    0  0.5626800E-005  0.2280348E+03  0.7546771E-02  0.1128031E+00
         21   -1    0    0  502  501  0.00000000000E+00  0.00000000000E+00  0.94791271466E+02  0.94791271466E+02  0.00000000000E+00 0.  1.
         21   -1    0    0  501  502 -0.00000000000E+00 -0.00000000000E+00 -0.54857237953E+03  0.54857237953E+03  0.00000000000E+00 0.  1.
         25    1    1    2    0    0 -0.30893740529E+02 -0.98464984680E+02 -0.18650049560E+03  0.24709757440E+03  0.12500000000E+03 0.  0.
         25    1    1    2    0    0 -0.22451062956E+02  0.43550415888E+01 -0.12286731598E+03  0.17676083828E+03  0.12500000000E+03 0.  0.
         25    1    1    2    0    0  0.53344803485E+02  0.94109943091E+02 -0.14441329648E+03  0.21950523831E+03  0.12500000000E+03 0.  0.
</event>
<event>
 5    0  0.5626800E-005  0.6135897E+03  0.7546771E-02  0.9877606E-01
         21   -1    0    0  502  501  0.00000000000E+00  0.00000000000E+00  0.18448079582E+04  0.18448079582E+04  0.00000000000E+00 0.  1.
         21   -1    0    0  501  502 -0.00000000000E+00 -0.00000000000E+00 -0.20408211402E+03  0.20408211402E+03  0.00000000000E+00 0.  1.
         25    1    1    2    0    0 -0.37856477466E+02 -0.26883178916E+03  0.12185627241E+04  0.12546807388E+04  0.12500000000E+03 0.  0.
         25    1    1    2    0    0 -0.72393633773E+01  0.37775601496E+03  0.72368891120E+02  0.40449261010E+03  0.12500000000E+03 0.  0.
         25    1    1    2    0    0  0.45095840843E+02 -0.10892422581E+03  0.34979422895E+03  0.38971672332E+03  0.12500000000E+03 0.  0.
</event>
<event>
 5    0  0.5626800E-005  0.3056941E+03  0.7546771E-02  0.1082428E+00
         21   -1    0    0  502  501  0.00000000000E+00  0.00000000000E+00  0.86622180005E+02  0.86622180005E+02  0.00000000000E+00 0. -1.
         21   -1    0    0  501  502 -0.00000000000E+00 -0.00000000000E+00 -0.10788099950E+04  0.10788099950E+04  0.00000000000E+00 0. -1.
         25    1    1    2    0    0  0.14104304611E+03  0.26101880980E+02 -0.25650805535E+03  0.31936786236E+03  0.12500000000E+03 0.  0.
         25    1    1    2    0    0  0.76369687753E+02  0.13235105102E+02 -0.39285956808E+03  0.41948913866E+03  0.12500000000E+03 0.  0.
         25    1    1    2    0    0 -0.21741273387E+03 -0.39336986082E+02 -0.34282019156E+03  0.42657517399E+03  0.12500000000E+03 0.  0.
</event>
<event>
 5    0  0.5626800E-005  0.4480273E+03  0.7546771E-02  0.1028312E+00
         21   -1    0    0  502  501  0.00000000000E+00  0.00000000000E+00  0.20413481583E+04  0.20413481583E+04  0.00000000000E+00 0.  1.
         21   -1    0    0  501  502 -0.00000000000E+00 -0.00000000000E+00 -0.98331324424E+02  0.98331324424E+02  0.00000000000E+00 0.  1.
         25    1    1    2    0    0 -0.92354636147E+02  0.21348640427E+03  0.14045382758E+04  0.14291461058E+04  0.12500000000E+03 0.  0.
         25    1    1    2    0    0  0.11437523217E+03 -0.25436454936E+03  0.25797783697E+03  0.39995072456E+03  0.12500000000E+03 0.  0.
         25    1    1    2    0    0 -0.22020596023E+02  0.40878145090E+02  0.28050072115E+03  0.31058265239E+03  0.12500000000E+03 0.  0.
</event>
<event>
 5    0  0.5626800E-005  0.2297384E+03  0.7546771E-02  0.1126824E+00
         21   -1    0    0  502  501  0.00000000000E+00  0.00000000000E+00  0.22062940912E+03  0.22062940912E+03  0.00000000000E+00 0. -1.
         21   -1    0    0  501  502 -0.00000000000E+00 -0.00000000000E+00 -0.23922351445E+03  0.23922351445E+03  0.00000000000E+00 0. -1.
         25    1    1    2    0    0 -0.64718487959E+02 -0.78937595290E+01  0.77912152067E+02  0.16107792388E+03  0.12500000000E+03 0.  0.
         25    1    1    2    0    0  0.34293794093E+02  0.48646062157E+02 -0.86952150232E+02  0.16348755337E+03  0.12500000000E+03 0.  0.
         25    1    1    2    0    0  0.30424693866E+02 -0.40752302628E+02 -0.95541071605E+01  0.13528744631E+03  0.12500000000E+03 0.  0.
</event>
<event>
 5    0  0.5626800E-005  0.3565963E+03  0.7546771E-02  0.1059940E+00
         21   -1    0    0  502  501  0.00000000000E+00  0.00000000000E+00  0.74083504174E+03  0.74083504174E+03  0.00000000000E+00 0. -1.
         21   -1    0    0  501  502 -0.00000000000E+00 -0.00000000000E+00 -0.17164540115E+03  0.17164540115E+03  0.00000000000E+00 0. -1.
         25    1    1    2    0    0 -0.55255621760E+02 -0.13146193272E+03 -0.22534329913E+02  0.19096654030E+03  0.12500000000E+03 0.  0.
         25    1    1    2    0    0  0.15677612973E+03  0.39184891243E+02  0.19003598875E+03  0.27902130308E+03  0.12500000000E+03 0.  0.
         25    1    1    2    0    0 -0.10152050797E+03  0.92277041478E+02  0.40168798176E+03  0.44249259950E+03  0.12500000000E+03 0.  0.
</event>
<event>
 5    0  0.5626800E-005  0.4168240E+03  0.7546771E-02  0.1038105E+00
         21   -1    0    0  502  501  0.00000000000E+00  0.00000000000E+00  0.11744663811E+04  0.11744663811E+04  0.00000000000E+00 0. -1.
         21   -1    0    0  501  502 -0.00000000000E+00 -0.00000000000E+00 -0.14793290886E+03  0.14793290886E+03  0.00000000000E+00 0. -1.
         25    1    1    2    0    0  0.87755821629E+02  0.18484561632E+02 -0.16072103629E+01  0.15385170254E+03  0.12500000000E+03 0.  0.
         25    1    1    2    0    0  0.13824210134E+03 -0.11750198447E+03  0.72702853138E+03  0.75967959060E+03  0.12500000000E+03 0.  0.
         25    1    1    2    0    0 -0.22599792297E+03  0.99017422842E+02  0.30111215124E+03  0.40886799683E+03  0.12500000000E+03 0.  0.
</event>
<event>
 5    0  0.5828042E-005  0.2938735E+03  0.7546771E-02  0.1088344E+00
         21   -1    0    0  502  501  0.00000000000E+00  0.00000000000E+00  0.12527469825E+03  0.12527469825E+03  0.00000000000E+00 0.  1.
         21   -1    0    0  501  502 -0.00000000000E+00 -0.00000000000E+00 -0.68937801967E+03  0.68937801967E+03  0.00000000000E+00 0.  1.
         25    1    1    2    0    0  0.14032213653E+03 -0.11073767044E+03 -0.37270593828E+03  0.43184239033E+03  0.12500000000E+03 0.  0.
         25    1    1    2    0    0 -0.25364271006E+02  0.96478050921E+02 -0.10880561975E+03  0.19342963434E+03  0.12500000000E+03 0.  0.
         25    1    1    2    0    0 -0.11495786553E+03  0.14259619522E+02 -0.82591763381E+02  0.18938069324E+03  0.12500000000E+03 0.  0.
</event>
<event>
 5    0  0.5626800E-005  0.2547371E+03  0.7546771E-02  0.1110347E+00
         21   -1    0    0  502  501  0.00000000000E+00  0.00000000000E+00  0.27371477589E+03  0.27371477589E+03  0.00000000000E+00 0.  1.
         21   -1    0    0  501  502 -0.00000000000E+00 -0.00000000000E+00 -0.23707515000E+03  0.23707515000E+03  0.00000000000E+00 0.  1.
         25    1    1    2    0    0  0.80442340306E+02  0.55098987833E+02 -0.15285507358E+02  0.15926554966E+03  0.12500000000E+03 0.  0.
         25    1    1    2    0    0  0.19386145559E+02  0.34260410636E+02  0.96735668794E+02  0.16288765452E+03  0.12500000000E+03 0.  0.
         25    1    1    2    0    0 -0.99828485865E+02 -0.89359398469E+02 -0.44810535545E+02  0.18863672172E+03  0.12500000000E+03 0.  0.
</event>
<event>
 5    0  0.5626800E-005  0.3212648E+03  0.7546771E-02  0.1075069E+00
         21   -1    0    0  502  501  0.00000000000E+00  0.00000000000E+00  0.15724374494E+04  0.15724374494E+04  0.00000000000E+00 0. -1.
         21   -1    0    0  501  502 -0.00000000000E+00 -0.00000000000E+00 -0.65637619755E+02  0.65637619755E+02  0.00000000000E+00 0. -1.
         25    1    1    2    0    0  0.87663021081E+02 -0.89774167494E+02  0.73769459677E+03  0.75865837141E+03  0.12500000000E+03 0.  0.
         25    1    1    2    0    0 -0.14215648889E+03  0.15624180027E+03  0.30704972470E+03  0.39309604542E+03  0.12500000000E+03 0.  0.
         25    1    1    2    0    0  0.54493467810E+02 -0.66467632775E+02  0.46205550815E+03  0.48632065229E+03  0.12500000000E+03 0.  0.
</event>
<event>
 5    0  0.5626800E-005  0.2530272E+03  0.7546771E-02  0.1111407E+00
         21   -1    0    0  502  501  0.00000000000E+00  0.00000000000E+00  0.28048344036E+03  0.28048344036E+03  0.00000000000E+00 0. -1.
         21   -1    0    0  501  502 -0.00000000000E+00 -0.00000000000E+00 -0.22825865423E+03  0.22825865423E+03  0.00000000000E+00 0. -1.
         25    1    1    2    0    0 -0.75040554964E+02  0.59228858928E+02 -0.66108286417E+01  0.15750506555E+03  0.12500000000E+03 0.  0.
         25    1    1    2    0    0  0.14190366940E+03  0.13205880325E+01  0.93632661683E+01  0.18934377755E+03  0.12500000000E+03 0.  0.
         25    1    1    2    0    0 -0.66863114438E+02 -0.60549446961E+02  0.49472348606E+02  0.16189325148E+03  0.12500000000E+03 0.  0.
</event>
<event>
 5    0  0.5626800E-005  0.3001346E+03  0.7546771E-02  0.1085173E+00
         21   -1    0    0  502  501  0.00000000000E+00  0.00000000000E+00  0.13656137953E+03  0.13656137953E+03  0.00000000000E+00 0. -1.
         21   -1    0    0  501  502 -0.00000000000E+00 -0.00000000000E+00 -0.65963565336E+03  0.65963565336E+03  0.00000000000E+00 0. -1.
         25    1    1    2    0    0 -0.81661112815E+02  0.81274993693E+01 -0.42073457915E+03  0.44651671826E+03  0.12500000000E+03 0.  0.
         25    1    1    2    0    0 -0.58207422790E+01 -0.23367683228E+02 -0.14259841177E+03  0.19115239130E+03  0.12500000000E+03 0.  0.
         25    1    1    2    0    0  0.87481855094E+02  0.15240183858E+02  0.40258717092E+02  0.15852792333E+03  0.12500000000E+03 0.  0.
</event>
<event>
 5    0  0.5626800E-005  0.3436962E+03  0.7546771E-02  0.1065232E+00
         21   -1    0    0  502  501  0.00000000000E+00  0.00000000000E+00  0.32377783375E+03  0.32377783375E+03  0.00000000000E+00 0. -1.
         21   -1    0    0  501  502 -0.00000000000E+00 -0.00000000000E+00 -0.36484000520E+03  0.36484000520E+03  0.00000000000E+00 0. -1.
         25    1    1    2    0    0  0.99394993874E+01  0.23961203971E+03  0.11521362793E+03  0.29395901633E+03  0.12500000000E+03 0.  0.
         25    1    1    2    0    0  0.85859686840E+01 -0.15821627153E+03 -0.42760698762E+02  0.20629974502E+03  0.12500000000E+03 0.  0.
         25    1    1    2    0    0 -0.18525468071E+02 -0.81395768176E+02 -0.11351510062E+03  0.18835907760E+03  0.12500000000E+03 0.  0.
</event>
<event>
 5    0  0.5626800E-005  0.2198181E+03  0.7546771E-02  0.1134019E+00
         21   -1    0    0  502  501  0.00000000000E+00  0.00000000000E+00  0.14236651399E+03  0.14236651399E+03  0.00000000000E+00 0. -1.
         21   -1    0    0  501  502 -0.00000000000E+00 -0.00000000000E+00 -0.33940576956E+03  0.33940576956E+03  0.00000000000E+00 0. -1.
         25    1    1    2    0    0 -0.79444737146E+02  0.21977593819E+02 -0.15156625824E+03  0.21305354146E+03  0.12500000000E+03 0.  0.
         25    1    1    2    0    0  0.50220966296E+02 -0.65159006344E+00 -0.23343423488E+02  0.13672046462E+03  0.12500000000E+03 0.  0.
         25    1    1    2    0    0  0.29223770850E+02 -0.21326003756E+02 -0.22129573843E+02  0.13199827748E+03  0.12500000000E+03 0.  0.
</event>
<event>
 5    0  0.5626800E-005  0.2972888E+03  0.7546771E-02  0.1086604E+00
         21   -1    0    0  502  501  0.00000000000E+00  0.00000000000E+00  0.18861675754E+03  0.18861675754E+03  0.00000000000E+00 0. -1.
         21   -1    0    0  501  502 -0.00000000000E+00 -0.00000000000E+00 -0.46857267242E+03  0.46857267242E+03  0.00000000000E+00 0. -1.
         25    1    1    2    0    0 -0.12623597930E+03  0.53099751689E+02 -0.36769389410E+02  0.18902934718E+03  0.12500000000E+03 0.  0.
         25    1    1    2    0    0 -0.72406169355E+02 -0.76914193166E+02 -0.11095775668E+03  0.19772473350E+03  0.12500000000E+03 0.  0.
         25    1    1    2    0    0  0.19864214865E+03  0.23814441478E+02 -0.13222876879E+03  0.27043534928E+03  0.12500000000E+03 0.  0.
</event>
<event>
 5    0  0.5626800E-005  0.4961498E+03  0.7546771E-02  0.1014789E+00
         21   -1    0    0  502  501  0.00000000000E+00  0.00000000000E+00  0.25072566306E+04  0.25072566306E+04  0.00000000000E+00 0.  1.
         21   -1    0    0  501  502 -0.00000000000E+00 -0.00000000000E+00 -0.98180882022E+02  0.98180882022E+02  0.00000000000E+00 0.  1.
         25    1    1    2    0    0  0.60093257277E+02 -0.45554482679E+02  0.21109651908E+04  0.21160069582E+04  0.12500000000E+03 0.  0.
         25    1    1    2    0    0 -0.10947436892E+03 -0.80786885201E+02  0.73646189365E+02  0.19889675583E+03  0.12500000000E+03 0.  0.
         25    1    1    2    0    0  0.49381111643E+02  0.12634136788E+03  0.22446436839E+03  0.29053379855E+03  0.12500000000E+03 0.  0.
</event>
<event>
 5    0  0.5626800E-005  0.3425583E+03  0.7546771E-02  0.1065712E+00
         21   -1    0    0  502  501  0.00000000000E+00  0.00000000000E+00  0.81212455578E+03  0.81212455578E+03  0.00000000000E+00 0.  1.
         21   -1    0    0  501  502 -0.00000000000E+00 -0.00000000000E+00 -0.14449283866E+03  0.14449283866E+03  0.00000000000E+00 0.  1.
         25    1    1    2    0    0 -0.10307609613E+03 -0.63615289208E+02  0.34078883557E+02  0.17736391098E+03  0.12500000000E+03 0.  0.
         25    1    1    2    0    0 -0.84897981985E+02  0.14897089665E+03  0.30716336859E+03  0.37332871628E+03  0.12500000000E+03 0.  0.
         25    1    1    2    0    0  0.18797407811E+03 -0.85355607442E+02  0.32638946497E+03  0.40592476718E+03  0.12500000000E+03 0.  0.
</event>
<event>
 5    0  0.5626800E-005  0.3150982E+03  0.7546771E-02  0.1077928E+00
         21   -1    0    0  502  501  0.00000000000E+00  0.00000000000E+00  0.49304423030E+03  0.49304423030E+03  0.00000000000E+00 0. -1.
         21   -1    0    0  501  502 -0.00000000000E+00 -0.00000000000E+00 -0.20137518471E+03  0.20137518471E+03  0.00000000000E+00 0. -1.
         25    1    1    2    0    0  0.13283568551E+03  0.10067857307E+03  0.16997398331E+03  0.26888222221E+03  0.12500000000E+03 0.  0.
         25    1    1    2    0    0 -0.71132605616E+02 -0.18373871327E+03  0.12192312424E+03  0.26326794442E+03  0.12500000000E+03 0.  0.
         25    1    1    2    0    0 -0.61703079891E+02  0.83060140200E+02 -0.22806196056E+00  0.16226924838E+03  0.12500000000E+03 0.  0.
</event>
<event>
 5    0  0.6681020E-005  0.2918436E+03  0.7546771E-02  0.1089390E+00
         21   -1    0    0  502  501  0.00000000000E+00  0.00000000000E+00  0.39704202672E+03  0.39704202672E+03  0.00000000000E+00 0.  1.
         21   -1    0    0  501  502 -0.00000000000E+00 -0.00000000000E+00 -0.21451811914E+03  0.21451811914E+03  0.00000000000E+00 0.  1.
         25    1    1    2    0    0 -0.72508608734E+02  0.14425942508E+03  0.21600850486E+03  0.29724224841E+03  0.12500000000E+03 0.  0.
         25    1    1    2    0    0 -0.94910965363E+00 -0.10158901802E+03 -0.10214046651E+02  0.16140184677E+03  0.12500000000E+03 0.  0.
         25    1    1    2    0    0  0.73457718388E+02 -0.42670407065E+02 -0.23270550629E+02  0.15291605068E+03  0.12500000000E+03 0.  0.
</event>
<event>
 5    0  0.5626800E-005  0.2475686E+03  0.7546771E-02  0.1114851E+00
         21   -1    0    0  502  501  0.00000000000E+00  0.00000000000E+00  0.17717359782E+04  0.17717359782E+04  0.00000000000E+00 0. -1.
         21   -1    0    0  501  502 -0.00000000000E+00 -0.00000000000E+00 -0.34593321189E+02  0.34593321189E+02  0.00000000000E+00 0. -1.
         25    1    1    2    0    0 -0.58677180117E+02  0.77184563004E+01  0.23789540559E+03  0.27517596195E+03  0.12500000000E+03 0.  0.
         25    1    1    2    0    0  0.37459018333E+01 -0.83078751004E+02  0.87057288301E+03  0.88342416498E+03  0.12500000000E+03 0.  0.
         25    1    1    2    0    0  0.54931278284E+02  0.75360294703E+02  0.62867436845E+03  0.64772917249E+03  0.12500000000E+03 0.  0.
</event>
<event>
 5    0  0.5703482E-005  0.3314436E+03  0.7546771E-02  0.1070500E+00
         21   -1    0    0  502  501  0.00000000000E+00  0.00000000000E+00  0.55547183850E+03  0.55547183850E+03  0.00000000000E+00 0.  1.
         21   -1    0    0  501  502 -0.00000000000E+00 -0.00000000000E+00 -0.19776856087E+03  0.19776856087E+03  0.00000000000E+00 0.  1.
         25    1    1    2    0    0 -0.19945667792E+02  0.14423053120E+03  0.93031432121E+02  0.21326069295E+03  0.12500000000E+03 0.  0.
         25    1    1    2    0    0  0.21987772788E+02 -0.23028074452E+03  0.35809540728E+02  0.26536768201E+03  0.12500000000E+03 0.  0.
         25    1    1    2    0    0 -0.20421049959E+01  0.86050213325E+02  0.22886230477E+03  0.27461202441E+03  0.12500000000E+03 0.  0.
</event>
<event>
 5    0  0.5626800E-005  0.3768013E+03  0.7546771E-02  0.1052122E+00
         21   -1    0    0  502  501  0.00000000000E+00  0.00000000000E+00  0.15138233291E+04  0.15138233291E+04  0.00000000000E+00 0.  1.
         21   -1    0    0  501  502 -0.00000000000E+00 -0.00000000000E+00 -0.93788515736E+02  0.93788515736E+02  0.00000000000E+00 0.  1.
         25    1    1    2    0    0 -0.11891989088E+03 -0.90579265584E+02  0.19656132195E+03  0.27678131636E+03  0.12500000000E+03 0.  0.
         25    1    1    2    0    0  0.27893275572E+03  0.12135584892E+02  0.72665542686E+03  0.78841858427E+03  0.12500000000E+03 0.  0.
         25    1    1    2    0    0 -0.16001286483E+03  0.78443680692E+02  0.49681806460E+03  0.54241194425E+03  0.12500000000E+03 0.  0.
</event>
<event>
 5    0  0.5626800E-005  0.2968489E+03  0.7546771E-02  0.1086827E+00
         21   -1    0    0  502  501  0.00000000000E+00  0.00000000000E+00  0.57110286645E+03  0.57110286645E+03  0.00000000000E+00 0.  1.
         21   -1    0    0  501  502 -0.00000000000E+00 -0.00000000000E+00 -0.15429664398E+03  0.15429664398E+03  0.00000000000E+00 0.  1.
         25    1    1    2    0    0 -0.69579119411E+02 -0.11469194316E+03  0.39959679899E+03  0.43965679506E+03  0.12500000000E+03 0.  0.
         25    1    1    2    0    0  0.49643241698E+02  0.55746254449E+02  0.87593230153E+01  0.14585548351E+03  0.12500000000E+03 0.  0.
         25    1    1    2    0    0  0.19935877713E+02  0.58945688708E+02  0.84501004589E+01  0.13988723185E+03  0.12500000000E+03 0.  0.
</event>
<event>
 5    0  0.5626800E-005  0.2971044E+03  0.7546771E-02  0.1086697E+00
         21   -1    0    0  502  501  0.00000000000E+00  0.00000000000E+00  0.33956975476E+02  0.33956975476E+02  0.00000000000E+00 0. -1.
         21   -1    0    0  501  502 -0.00000000000E+00 -0.00000000000E+00 -0.25994961817E+04  0.25994961817E+04  0.00000000000E+00 0. -1.
         25    1    1    2    0    0 -0.45452471686E+02 -0.35911531723E+02 -0.10656892644E+04  0.10745576641E+04  0.12500000000E+03 0.  0.
         25    1    1    2    0    0 -0.88999921402E+02 -0.10462804702E+03 -0.82134647882E+03  0.84208256870E+03  0.12500000000E+03 0.  0.
         25    1    1    2    0    0  0.13445239309E+03  0.14053957875E+03 -0.67850346301E+03  0.71681292435E+03  0.12500000000E+03 0.  0.
</event>
<event>
 5    0  0.5626800E-005  0.4076356E+03  0.7546771E-02  0.1041167E+00
         21   -1    0    0  502  501  0.00000000000E+00  0.00000000000E+00  0.20606901083E+03  0.20606901083E+03  0.00000000000E+00 0.  1.
         21   -1    0    0  501  502 -0.00000000000E+00 -0.00000000000E+00 -0.80636478906E+03  0.80636478906E+03  0.00000000000E+00 0.  1.
         25    1    1    2    0    0  0.17918928526E+01 -0.26203716278E+03 -0.24741388359E+03  0.38145158979E+03  0.12500000000E+03 0.  0.
         25    1    1    2    0    0 -0.73594006820E+02 -0.35669020225E+01  0.24878656663E+02  0.14721667089E+03  0.12500000000E+03 0.  0.
         25    1    1    2    0    0  0.71802113968E+02  0.26560406480E+03 -0.37776055130E+03  0.48376553921E+03  0.12500000000E+03 0.  0.
</event>
<event>
 5    0  0.5626800E-005  0.3088310E+03  0.7546771E-02  0.1080908E+00
         21   -1    0    0  502  501  0.00000000000E+00  0.00000000000E+00  0.21217712788E+03  0.21217712788E+03  0.00000000000E+00 0. -1.
         21   -1    0    0  501  502 -0.00000000000E+00 -0.00000000000E+00 -0.44951394688E+03  0.44951394688E+03  0.00000000000E+00 0. -1.
         25    1    1    2    0    0 -0.94086788319E+02 -0.20249724485E+02 -0.17172516103E+03  0.23318856321E+03  0.12500000000E+03 0.  0.
         25    1    1    2    0    0  0.70719415710E+02  0.40736067155E+02 -0.19523249948E+03  0.24576694607E+03  0.12500000000E+03 0.  0.
         25    1    1    2    0    0  0.23367372610E+02 -0.20486342671E+02  0.12962084152E+03  0.18273556549E+03  0.12500000000E+03 0.  0.
</event>
<event>
 5    0  0.5626800E-005  0.2402875E+03  0.7546771E-02  0.1119601E+00
         21   -1    0    0  502  501  0.00000000000E+00  0.00000000000E+00  0.56787323506E+02  0.56787323506E+02  0.00000000000E+00 0. -1.
         21   -1    0    0  501  502 -0.00000000000E+00 -0.00000000000E+00 -0.10167421744E+04  0.10167421744E+04  0.00000000000E+00 0. -1.
         25    1    1    2    0    0 -0.77850492889E+02  0.72451322267E+02 -0.48736630198E+03  0.51425752853E+03  0.12500000000E+03 0.  0.
         25    1    1    2    0    0  0.69673543364E+02 -0.76127019477E+02 -0.34094329043E+03  0.37751430838E+03  0.12500000000E+03 0.  0.
         25    1    1    2    0    0  0.81769495255E+01  0.36756972100E+01 -0.13164525850E+03  0.18175766102E+03  0.12500000000E+03 0.  0.
</event>
<event>
 5    0  0.5626800E-005  0.2616814E+03  0.7546771E-02  0.1106137E+00
         21   -1    0    0  502  501  0.00000000000E+00  0.00000000000E+00  0.40845360048E+03  0.40845360048E+03  0.00000000000E+00 0. -1.
         21   -1    0    0  501  502 -0.00000000000E+00 -0.00000000000E+00 -0.16764983394E+03  0.16764983394E+03  0.00000000000E+00 0. -1.
         25    1    1    2    0    0 -0.37877991251E+02  0.91662792851E+02  0.18457636884E+03  0.24398820822E+03  0.12500000000E+03 0.  0.
         25    1    1    2    0    0  0.58393933579E+02 -0.74322461914E+02 -0.51468633431E+02  0.16494756758E+03  0.12500000000E+03 0.  0.
         25    1    1    2    0    0 -0.20515942328E+02 -0.17340330937E+02  0.10769603113E+03  0.16716765862E+03  0.12500000000E+03 0.  0.
</event>
<event>
 5    0  0.5626800E-005  0.2749543E+03  0.7546771E-02  0.1098477E+00
         21   -1    0    0  502  501  0.00000000000E+00  0.00000000000E+00  0.23728717793E+03  0.23728717793E+03  0.00000000000E+00 0. -1.
         21   -1    0    0  501  502 -0.00000000000E+00 -0.00000000000E+00 -0.31860065256E+03  0.31860065256E+03  0.00000000000E+00 0. -1.
         25    1    1    2    0    0 -0.11043439174E+03  0.71953553983E+02 -0.11272948824E+03  0.21378963101E+03  0.12500000000E+03 0.  0.
         25    1    1    2    0    0  0.12054446579E+03 -0.87740749465E+02 -0.37485579193E+02  0.19814029372E+03  0.12500000000E+03 0.  0.
         25    1    1    2    0    0 -0.10110074046E+02  0.15787195483E+02  0.68901592809E+02  0.14395790576E+03  0.12500000000E+03 0.  0.
</event>
<event>
 5    0  0.5626800E-005  0.2970327E+03  0.7546771E-02  0.1086733E+00
         21   -1    0    0  502  501  0.00000000000E+00  0.00000000000E+00  0.10054325197E+04  0.10054325197E+04  0.00000000000E+00 0. -1.
         21   -1    0    0  501  502 -0.00000000000E+00 -0.00000000000E+00 -0.87751692161E+02  0.87751692161E+02  0.00000000000E+00 0. -1.
         25    1    1    2    0    0  0.31121268632E+02 -0.51476966926E+02  0.54868799862E+02  0.14917773521E+03  0.12500000000E+03 0.  0.
         25    1    1    2    0    0  0.99412782456E+02  0.87973537987E+02  0.29297387944E+03  0.34508106111E+03  0.12500000000E+03 0.  0.
         25    1    1    2    0    0 -0.13053405109E+03 -0.36496571061E+02  0.56983814823E+03  0.59892541553E+03  0.12500000000E+03 0.  0.
</event>
<event>
 5    0  0.5626800E-005  0.4472619E+03  0.7546771E-02  0.1028542E+00
         21   -1    0    0  502  501  0.00000000000E+00  0.00000000000E+00  0.78121236355E+03  0.78121236355E+03  0.00000000000E+00 0. -1.
         21   -1    0    0  501  502 -0.00000000000E+00 -0.00000000000E+00 -0.25606769181E+03  0.25606769181E+03  0.00000000000E+00 0. -1.
         25    1    1    2    0    0  0.35768554700E+02 -0.97445310545E+02  0.66002841328E+02  0.17537489306E+03  0.12500000000E+03 0.  0.
         25    1    1    2    0    0  0.60113157475E+01  0.38282242302E+03  0.33525140682E+03  0.52403019880E+03  0.12500000000E+03 0.  0.
         25    1    1    2    0    0 -0.41779870448E+02 -0.28537711247E+03  0.12389042359E+03  0.33787496349E+03  0.12500000000E+03 0.  0.
</event>
<event>
 5    0  0.5626800E-005  0.2333814E+03  0.7546771E-02  0.1124282E+00
         21   -1    0    0  502  501  0.00000000000E+00  0.00000000000E+00  0.85953713640E+02  0.85953713640E+02  0.00000000000E+00 0. -1.
         21   -1    0    0  501  502 -0.00000000000E+00 -0.00000000000E+00 -0.63367708652E+03  0.63367708652E+03  0.00000000000E+00 0. -1.
         25    1    1    2    0    0 -0.55259586742E+02 -0.16073264531E+02 -0.99040525317E+02  0.16954644619E+03  0.12500000000E+03 0.  0.
         25    1    1    2    0    0  0.50300448037E+02 -0.68378157226E+02 -0.13780030546E+03  0.20449848812E+03  0.12500000000E+03 0.  0.
         25    1    1    2    0    0  0.49591387047E+01  0.84451421757E+02 -0.31088254210E+03  0.34558586585E+03  0.12500000000E+03 0.  0.
</event>
<event>
 5    0  0.5626800E-005  0.2704273E+03  0.7546771E-02  0.1101035E+00
         21   -1    0    0  502  501  0.00000000000E+00  0.00000000000E+00  0.48728424518E+03  0.48728424518E+03  0.00000000000E+00 0.  1.
         21   -1    0    0  501  502 -0.00000000000E+00 -0.00000000000E+00 -0.15007856474E+03  0.15007856474E+03  0.00000000000E+00 0.  1.
         25    1    1    2    0    0 -0.46278524117E+02 -0.24716160092E+02  0.24895632653E+03  0.28347282565E+03  0.12500000000E+03 0.  0.
         25    1    1    2    0    0  0.56464740513E+02  0.38857006948E+02 -0.63885362864E+02  0.15621931218E+03  0.12500000000E+03 0.  0.
         25    1    1    2    0    0 -0.10186216396E+02 -0.14140846856E+02  0.15213471678E+03  0.19767067209E+03  0.12500000000E+03 0.  0.
</event>
<event>
 5    0  0.5948743E-005  0.3273335E+03  0.7546771E-02  0.1072323E+00
         21   -1    0    0  502  501  0.00000000000E+00  0.00000000000E+00  0.15974050229E+03  0.15974050229E+03  0.00000000000E+00 0. -1.
         21   -1    0    0  501  502 -0.00000000000E+00 -0.00000000000E+00 -0.67075792215E+03  0.67075792215E+03  0.00000000000E+00 0. -1.
         25    1    1    2    0    0  0.64131907919E+02  0.17506759797E+03 -0.25606190179E+03  0.34052057650E+03  0.12500000000E+03 0.  0.
         25    1    1    2    0    0  0.35902705532E+02 -0.18694134386E+03 -0.23660246667E+03  0.32839274892E+03  0.12500000000E+03 0.  0.
         25    1    1    2    0    0 -0.10003461345E+03  0.11873745892E+02 -0.18353051409E+02  0.16158509902E+03  0.12500000000E+03 0.  0.
</event>
<event>
 5    0  0.5626800E-005  0.4250752E+03  0.7546771E-02  0.1035427E+00
         21   -1    0    0  502  501  0.00000000000E+00  0.00000000000E+00  0.12300097142E+03  0.12300097142E+03  0.00000000000E+00 0. -1.
         21   -1    0    0  501  502 -0.00000000000E+00 -0.00000000000E+00 -0.14690037475E+04  0.14690037475E+04  0.00000000000E+00 0. -1.
         25    1    1    2    0    0 -0.11589764111E+03 -0.60493807661E+02 -0.17700507627E+03  0.25307619605E+03  0.12500000000E+03 0.  0.
         25    1    1    2    0    0  0.34453363108E+03  0.10525293457E+03 -0.78497100119E+03  0.87268899151E+03  0.12500000000E+03 0.  0.
         25    1    1    2    0    0 -0.22863598997E+03 -0.44759126913E+02 -0.38402669863E+03  0.46623953137E+03  0.12500000000E+03 0.  0.
</event>
<event>
 5    0  0.5626800E-005  0.2569009E+03  0.7546771E-02  0.1109020E+00
         21   -1    0    0  502  501  0.00000000000E+00  0.00000000000E+00  0.96148973505E+02  0.96148973505E+02  0.00000000000E+00 0. -1.
         21   -1    0    0  501  502 -0.00000000000E+00 -0.00000000000E+00 -0.68641486614E+03  0.68641486614E+03  0.00000000000E+00 0. -1.
         25    1    1    2    0    0 -0.44422028427E+02  0.29057625417E+02 -0.24305010338E+03  0.27841698037E+03  0.12500000000E+03 0.  0.
         25    1    1    2    0    0 -0.66316218158E+02  0.44374712119E+02 -0.52070554801E+02  0.15717283017E+03  0.12500000000E+03 0.  0.
         25    1    1    2    0    0  0.11073824659E+03 -0.73432337536E+02 -0.29514523446E+03  0.34697402911E+03  0.12500000000E+03 0.  0.
</event>
<event>
 5    0  0.5626800E-005  0.3214847E+03  0.7546771E-02  0.1074968E+00
         21   -1    0    0  502  501  0.00000000000E+00  0.00000000000E+00  0.27422544793E+03  0.27422544793E+03  0.00000000000E+00 0. -1.
         21   -1    0    0  501  502 -0.00000000000E+00 -0.00000000000E+00 -0.37688855739E+03  0.37688855739E+03  0.00000000000E+00 0. -1.
         25    1    1    2    0    0  0.20491575383E+03 -0.12392961526E+03  0.11494655106E+02  0.27038147644E+03  0.12500000000E+03 0.  0.
         25    1    1    2    0    0 -0.72461058763E+02  0.10789921947E+03 -0.60138067265E+02  0.19009059349E+03  0.12500000000E+03 0.  0.
         25    1    1    2    0    0 -0.13245469507E+03  0.16030395787E+02 -0.54019697299E+02  0.19064193539E+03  0.12500000000E+03 0.  0.
</event>
<event>
 5    0  0.5626800E-005  0.4104643E+03  0.7546771E-02  0.1040215E+00
         21   -1    0    0  502  501  0.00000000000E+00  0.00000000000E+00  0.14588152817E+03  0.14588152817E+03  0.00000000000E+00 0.  1.
         21   -1    0    0  501  502 -0.00000000000E+00 -0.00000000000E+00 -0.11549160384E+04  0.11549160384E+04  0.00000000000E+00 0.  1.
         25    1    1    2    0    0 -0.91081067939E+02 -0.11784150545E+03 -0.39651681979E+03  0.44162537259E+03  0.12500000000E+03 0.  0.
         25    1    1    2    0    0  0.16103212233E+03  0.21962564281E+03 -0.97679109286E+02  0.31517134354E+03  0.12500000000E+03 0.  0.
         25    1    1    2    0    0 -0.69951054392E+02 -0.10178413735E+03 -0.51483858121E+03  0.54400085048E+03  0.12500000000E+03 0.  0.
</event>
<event>
 5    0  0.5626800E-005  0.3297219E+03  0.7546771E-02  0.1071260E+00
         21   -1    0    0  502  501  0.00000000000E+00  0.00000000000E+00  0.59571734036E+02  0.59571734036E+02  0.00000000000E+00 0. -1.
         21   -1    0    0  501  502 -0.00000000000E+00 -0.00000000000E+00 -0.18249683688E+04  0.18249683688E+04  0.00000000000E+00 0. -1.
         25    1    1    2    0    0 -0.42911961928E+02 -0.85527179904E+02 -0.74115733068E+03  0.75769091575E+03  0.12500000000E+03 0.  0.
         25    1    1    2    0    0 -0.11198207206E+03 -0.31323672148E+02 -0.16602144176E+03  0.23813709502E+03  0.12500000000E+03 0.  0.
         25    1    1    2    0    0  0.15489403399E+03  0.11685085205E+03 -0.85821786232E+03  0.88871209207E+03  0.12500000000E+03 0.  0.
</event>
<event>
 5    0  0.5626800E-005  0.2718375E+03  0.7546771E-02  0.1100233E+00
         21   -1    0    0  502  501  0.00000000000E+00  0.00000000000E+00  0.26273729992E+03  0.26273729992E+03  0.00000000000E+00 0. -1.
         21   -1    0    0  501  502 -0.00000000000E+00 -0.00000000000E+00 -0.28125299060E+03  0.28125299060E+03  0.00000000000E+00 0. -1.
         25    1    1    2    0    0  0.79318636175E+02  0.58269032016E+02  0.94661872301E+02  0.18512859370E+03  0.12500000000E+03 0.  0.
         25    1    1    2    0    0 -0.11003566093E+03  0.48208230602E+02 -0.52729385524E+02  0.18121056336E+03  0.12500000000E+03 0.  0.
         25    1    1    2    0    0  0.30717024757E+02 -0.10647726262E+03 -0.60448177459E+02  0.17765113347E+03  0.12500000000E+03 0.  0.
</event>
<event>
 5    0  0.5626800E-005  0.2457717E+03  0.7546771E-02  0.1116007E+00
         21   -1    0    0  502  501  0.00000000000E+00  0.00000000000E+00  0.49378818145E+03  0.49378818145E+03  0.00000000000E+00 0.  1.
         21   -1    0    0  501  502 -0.00000000000E+00 -0.00000000000E+00 -0.12232718639E+03  0.12232718639E+03  0.00000000000E+00 0.  1.
         25    1    1    2    0    0  0.19361134063E+02  0.16399007616E+02  0.16309187801E+03  0.20704526470E+03  0.12500000000E+03 0.  0.
         25    1    1    2    0    0  0.42088503082E+01  0.96201202847E+02  0.26142863190E+02  0.15994009862E+03  0.12500000000E+03 0.  0.
         25    1    1    2    0    0 -0.23569984371E+02 -0.11260021046E+03  0.18222625386E+03  0.24913000453E+03  0.12500000000E+03 0.  0.
</event>
<event>
 5    0  0.5626800E-005  0.5198764E+03  0.7546771E-02  0.1008717E+00
         21   -1    0    0  502  501  0.00000000000E+00  0.00000000000E+00  0.13232881304E+04  0.13232881304E+04  0.00000000000E+00 0.  1.
         21   -1    0    0  501  502 -0.00000000000E+00 -0.00000000000E+00 -0.20424232474E+03  0.20424232474E+03  0.00000000000E+00 0.  1.
         25    1    1    2    0    0  0.16527447912E+03 -0.81227403286E+02 -0.24265331996E+02  0.22389138177E+03  0.12500000000E+03 0.  0.
         25    1    1    2    0    0 -0.12061714006E+03  0.28248958126E+03  0.38606831328E+03  0.50894262989E+03  0.12500000000E+03 0.  0.
         25    1    1    2    0    0 -0.44657339062E+02 -0.20126217798E+03  0.75724282434E+03  0.79469644345E+03  0.12500000000E+03 0.  0.
</event>
<event>
 5    0  0.5626800E-005  0.3156239E+03  0.7546771E-02  0.1077681E+00
         21   -1    0    0  502  501  0.00000000000E+00  0.00000000000E+00  0.81099901181E+03  0.81099901181E+03  0.00000000000E+00 0.  1.
         21   -1    0    0  501  502 -0.00000000000E+00 -0.00000000000E+00 -0.12283422394E+03  0.12283422394E+03  0.00000000000E+00 0.  1.
         25    1    1    2    0    0 -0.17790261881E+03 -0.22689679948E+02  0.12641433824E+03  0.25252672783E+03  0.12500000000E+03 0.  0.
         25    1    1    2    0    0  0.15161934330E+03 -0.35871075482E+02  0.16075222160E+03  0.25640092837E+03  0.12500000000E+03 0.  0.
         25    1    1    2    0    0  0.26283275513E+02  0.58560755429E+02  0.40099822803E+03  0.42490557955E+03  0.12500000000E+03 0.  0.
</event>
<event>
 5    0  0.5626800E-005  0.2555409E+03  0.7546771E-02  0.1109852E+00
         21   -1    0    0  502  501  0.00000000000E+00  0.00000000000E+00  0.92343699162E+02  0.92343699162E+02  0.00000000000E+00 0.  1.
         21   -1    0    0  501  502 -0.00000000000E+00 -0.00000000000E+00 -0.70715331725E+03  0.70715331725E+03  0.00000000000E+00 0.  1.
         25    1    1    2    0    0  0.22885463006E+02 -0.33787013363E+02 -0.13773229680E+03  0.19042187970E+03  0.12500000000E+03 0.  0.
         25    1    1    2    0    0 -0.79158381004E+01  0.15182241880E+03 -0.32020546656E+03  0.37585801596E+03  0.12500000000E+03 0.  0.
         25    1    1    2    0    0 -0.14969624905E+02 -0.11803540544E+03 -0.15687185473E+03  0.23321712075E+03  0.12500000000E+03 0.  0.
</event>
<event>
 5    0  0.5626800E-005  0.4648787E+03  0.7546771E-02  0.1023376E+00
         21   -1    0    0  502  501  0.00000000000E+00  0.00000000000E+00  0.18586383000E+03  0.18586383000E+03  0.00000000000E+00 0. -1.
         21   -1    0    0  501  502 -0.00000000000E+00 -0.00000000000E+00 -0.11627447896E+04  0.11627447896E+04  0.00000000000E+00 0. -1.
         25    1    1    2    0    0 -0.10260671799E+03 -0.36530604879E+02 -0.25212812758E+03  0.30175522595E+03  0.12500000000E+03 0.  0.
         25    1    1    2    0    0 -0.14654852137E+03  0.26606226505E+03 -0.13455998062E+03  0.35496054201E+03  0.12500000000E+03 0.  0.
         25    1    1    2    0    0  0.24915523936E+03 -0.22953166018E+03 -0.59019285143E+03  0.69189285168E+03  0.12500000000E+03 0.  0.
</event>
<event>
 5    0  0.5626800E-005  0.3297662E+03  0.7546771E-02  0.1071240E+00
         21   -1    0    0  502  501  0.00000000000E+00  0.00000000000E+00  0.70006192179E+03  0.70006192179E+03  0.00000000000E+00 0.  1.
         21   -1    0    0  501  502 -0.00000000000E+00 -0.00000000000E+00 -0.15533728653E+03  0.15533728653E+03  0.00000000000E+00 0.  1.
         25    1    1    2    0    0 -0.81514102963E+02  0.10174525004E+03  0.16556237500E+03  0.24501539727E+03  0.12500000000E+03 0.  0.
         25    1    1    2    0    0 -0.61592795662E+02  0.11519733259E+03  0.20562202419E+03  0.27380561489E+03  0.12500000000E+03 0.  0.
         25    1    1    2    0    0  0.14310689863E+03 -0.21694258263E+03  0.17354023607E+03  0.33657819616E+03  0.12500000000E+03 0.  0.
</event>
<event>
 5    0  0.5626800E-005  0.4166707E+03  0.7546771E-02  0.1038155E+00
         21   -1    0    0  502  501  0.00000000000E+00  0.00000000000E+00  0.17626500508E+04  0.17626500508E+04  0.00000000000E+00 0.  1.
         21   -1    0    0  501  502 -0.00000000000E+00 -0.00000000000E+00 -0.98496283183E+02  0.98496283183E+02  0.00000000000E+00 0.  1.
         25    1    1    2    0    0 -0.20591175181E+03  0.12627108929E+03  0.37503766847E+03  0.46327345088E+03  0.12500000000E+03 0.  0.
         25    1    1    2    0    0 -0.11557004201E+03 -0.15498646047E+02  0.31203205569E+03  0.35578876657E+03  0.12500000000E+03 0.  0.
         25    1    1    2    0    0  0.32148179382E+03 -0.11077244324E+03  0.97708404343E+03  0.10420841165E+04  0.12500000000E+03 0.  0.
</event>
<event>
 5    0  0.5626800E-005  0.3049852E+03  0.7546771E-02  0.1082775E+00
         21   -1    0    0  502  501  0.00000000000E+00  0.00000000000E+00  0.64741788001E+02  0.64741788001E+02  0.00000000000E+00 0. -1.
         21   -1    0    0  501  502 -0.00000000000E+00 -0.00000000000E+00 -0.14367219889E+04  0.14367219889E+04  0.00000000000E+00 0. -1.
         25    1    1    2    0    0 -0.74635557646E+01  0.15318269606E+03 -0.64439927897E+03  0.67408906962E+03  0.12500000000E+03 0.  0.
         25    1    1    2    0    0  0.12723163920E+03 -0.89156906719E+02 -0.28484922371E+03  0.34770810212E+03  0.12500000000E+03 0.  0.
         25    1    1    2    0    0 -0.11976808343E+03 -0.64025789342E+02 -0.44273169824E+03  0.47966660519E+03  0.12500000000E+03 0.  0.
</event>
<event>
 5    0  0.5626800E-005  0.3716935E+03  0.7546771E-02  0.1054047E+00
         21   -1    0    0  502  501  0.00000000000E+00  0.00000000000E+00  0.90415461935E+03  0.90415461935E+03  0.00000000000E+00 0.  1.
         21   -1    0    0  501  502 -0.00000000000E+00 -0.00000000000E+00 -0.15280139711E+03  0.15280139711E+03  0.00000000000E+00 0.  1.
         25    1    1    2    0    0  0.14332745914E+03 -0.18825512552E+03  0.21382761654E+03  0.34253467331E+03  0.12500000000E+03 0.  0.
         25    1    1    2    0    0 -0.53864359129E+02  0.16712550476E+03  0.51415998278E+03  0.55751035095E+03  0.12500000000E+03 0.  0.
         25    1    1    2    0    0 -0.89463100015E+02  0.21129620759E+02  0.23365622929E+02  0.15691099220E+03  0.12500000000E+03 0.  0.
</event>
<event>
 5    0  0.5626800E-005  0.3972364E+03  0.7546771E-02  0.1044741E+00
         21   -1    0    0  502  501  0.00000000000E+00  0.00000000000E+00  0.44224487124E+03  0.44224487124E+03  0.00000000000E+00 0.  1.
         21   -1    0    0  501  502 -0.00000000000E+00 -0.00000000000E+00 -0.35680861210E+03  0.35680861210E+03  0.00000000000E+00 0.  1.
         25    1    1    2    0    0 -0.17139100251E+02  0.30586806596E+02 -0.11529528120E+03  0.17362978823E+03  0.12500000000E+03 0.  0.
         25    1    1    2    0    0  0.13982212873E+03 -0.19040103037E+03 -0.59053801144E+02  0.27370628688E+03  0.12500000000E+03 0.  0.
         25    1    1    2    0    0 -0.12268302848E+03  0.15981422377E+03  0.25978534149E+03  0.35171740822E+03  0.12500000000E+03 0.  0.
</event>
<event>
 5    0  0.5626800E-005  0.3045375E+03  0.7546771E-02  0.1082994E+00
         21   -1    0    0  502  501  0.00000000000E+00  0.00000000000E+00  0.59551118842E+03  0.59551118842E+03  0.00000000000E+00 0. -1.
         21   -1    0    0  501  502 -0.00000000000E+00 -0.00000000000E+00 -0.15573698788E+03  0.15573698788E+03  0.00000000000E+00 0. -1.
         25    1    1    2    0    0  0.17208737035E+03 -0.42352315019E+02  0.15200212827E+03  0.26483471944E+03  0.12500000000E+03 0.  0.
         25    1    1    2    0    0 -0.93803424582E+02 -0.83717025351E+02  0.21621811583E+03  0.27961204625E+03  0.12500000000E+03 0.  0.
         25    1    1    2    0    0 -0.78283945772E+02  0.12606934037E+03  0.71553956441E+02  0.20680141061E+03  0.12500000000E+03 0.  0.
</event>
<event>
 5    0  0.5626800E-005  0.4041335E+03  0.7546771E-02  0.1042358E+00
         21   -1    0    0  502  501  0.00000000000E+00  0.00000000000E+00  0.21719268490E+03  0.21719268490E+03  0.00000000000E+00 0.  1.
         21   -1    0    0  501  502 -0.00000000000E+00 -0.00000000000E+00 -0.75197694293E+03  0.75197694293E+03  0.00000000000E+00 0.  1.
         25    1    1    2    0    0  0.54904961954E+02 -0.15297333206E+03 -0.92005308435E+02  0.22473400265E+03  0.12500000000E+03 0.  0.
         25    1    1    2    0    0 -0.55047005406E+02  0.15795424197E+03 -0.54452027690E+03  0.58318697458E+03  0.12500000000E+03 0.  0.
         25    1    1    2    0    0  0.14204345156E+00 -0.49809099128E+01  0.10174132730E+03  0.16124865060E+03  0.12500000000E+03 0.  0.
</event>
<event>
 5    0  0.5626800E-005  0.2997828E+03  0.7546771E-02  0.1085349E+00
         21   -1    0    0  502  501  0.00000000000E+00  0.00000000000E+00  0.10410148003E+04  0.10410148003E+04  0.00000000000E+00 0.  1.
         21   -1    0    0  501  502 -0.00000000000E+00 -0.00000000000E+00 -0.86328989507E+02  0.86328989507E+02  0.00000000000E+00 0.  1.
         25    1    1    2    0    0  0.17325827787E+03  0.99566294391E+02  0.24047414432E+03  0.33672643483E+03  0.12500000000E+03 0.  0.
         25    1    1    2    0    0 -0.31847264942E+02 -0.18008532458E+02  0.22539683085E+03  0.26032150676E+03  0.12500000000E+03 0.  0.
         25    1    1    2    0    0 -0.14141101292E+03 -0.81557761933E+02  0.48881483561E+03  0.53029584820E+03  0.12500000000E+03 0.  0.
</event>
<event>
 5    0  0.5626800E-005  0.4241678E+03  0.7546771E-02  0.1035718E+00
         21   -1    0    0  502  501  0.00000000000E+00  0.00000000000E+00  0.15694833458E+04  0.15694833458E+04  0.00000000000E+00 0. -1.
         21   -1    0    0  501  502 -0.00000000000E+00 -0.00000000000E+00 -0.11463537050E+03  0.11463537050E+03  0.00000000000E+00 0. -1.
         25    1    1    2    0    0 -0.51402317772E+02 -0.78396029199E+01  0.44852973888E+03  0.46851636503E+03  0.12500000000E+03 0.  0.
         25    1    1    2    0    0  0.17119251264E+03 -0.48737248163E+02  0.10102697449E+04  0.10334177051E+04  0.12500000000E+03 0.  0.
         25    1    1    2    0    0 -0.11979019487E+03  0.56576851083E+02 -0.39515085137E+01  0.18218464613E+03  0.12500000000E+03 0.  0.
</event>
<event>
 5    0  0.5626800E-005  0.3216907E+03  0.7546771E-02  0.1074874E+00
         21   -1    0    0  502  501  0.00000000000E+00  0.00000000000E+00  0.20674158074E+03  0.20674158074E+03  0.00000000000E+00 0.  1.
         21   -1    0    0  501  502 -0.00000000000E+00 -0.00000000000E+00 -0.50055201158E+03  0.50055201158E+03  0.00000000000E+00 0.  1.
         25    1    1    2    0    0 -0.35292678804E+02  0.18438889766E+03  0.27034872262E+02  0.22715792541E+03  0.12500000000E+03 0.  0.
         25    1    1    2    0    0  0.76347818348E+02 -0.75077449530E+02 -0.23980399872E+03  0.29085489612E+03  0.12500000000E+03 0.  0.
         25    1    1    2    0    0 -0.41055139544E+02 -0.10931144813E+03 -0.81041304393E+02  0.18928077080E+03  0.12500000000E+03 0.  0.
</event>
<event>
 5    0  0.5626800E-005  0.4589509E+03  0.7546771E-02  0.1025086E+00
         21   -1    0    0  502  501  0.00000000000E+00  0.00000000000E+00  0.63565906747E+03  0.63565906747E+03  0.00000000000E+00 0.  1.
         21   -1    0    0  501  502 -0.00000000000E+00 -0.00000000000E+00 -0.33136622068E+03  0.33136622068E+03  0.00000000000E+00 0.  1.
         25    1    1    2    0    0 -0.73223547070E+02  0.19045154519E+03 -0.10373768265E+03  0.26080641425E+03  0.12500000000E+03 0.  0.
         25    1    1    2    0    0 -0.14345428831E+03 -0.14076034438E+03  0.14308160607E+02  0.23711248564E+03  0.12500000000E+03 0.  0.
         25    1    1    2    0    0  0.21667783538E+03 -0.49691200808E+02  0.39372236884E+03  0.46910638826E+03  0.12500000000E+03 0.  0.
</event>
<event>
 5    0  0.5626800E-005  0.2309325E+03  0.7546771E-02  0.1125985E+00
         21   -1    0    0  502  501  0.00000000000E+00  0.00000000000E+00  0.45297745813E+02  0.45297745813E+02  0.00000000000E+00 0.  1.
         21   -1    0    0  501  502 -0.00000000000E+00 -0.00000000000E+00 -0.11773173804E+04  0.11773173804E+04  0.00000000000E+00 0.  1.
         25    1    1    2    0    0 -0.26845298765E+02 -0.32899183573E+02 -0.50399737061E+03  0.52100036078E+03  0.12500000000E+03 0.  0.
         25    1    1    2    0    0 -0.19197670371E+02 -0.18880327187E+02 -0.47635635666E+03  0.49321941957E+03  0.12500000000E+03 0.  0.
         25    1    1    2    0    0  0.46042969136E+02  0.51779510761E+02 -0.15166590732E+03  0.20839534588E+03  0.12500000000E+03 0.  0.
</event>
<event>
 5    0  0.5626800E-005  0.4304169E+03  0.7546771E-02  0.1033728E+00
         21   -1    0    0  502  501  0.00000000000E+00  0.00000000000E+00  0.34654673290E+03  0.34654673290E+03  0.00000000000E+00 0. -1.
         21   -1    0    0  501  502 -0.00000000000E+00 -0.00000000000E+00 -0.53458501218E+03  0.53458501218E+03  0.00000000000E+00 0. -1.
         25    1    1    2    0    0 -0.53913821250E+02  0.26147950661E+03 -0.11920901927E+03  0.31798431215E+03  0.12500000000E+03 0.  0.
         25    1    1    2    0    0  0.13733134464E+03 -0.31096946084E+03  0.49515844315E+02  0.36556630402E+03  0.12500000000E+03 0.  0.
         25    1    1    2    0    0 -0.83417523394E+02  0.49489954231E+02 -0.11834510432E+03  0.19758112890E+03  0.12500000000E+03 0.  0.
</event>
<event>
 5    0  0.5626800E-005  0.2695516E+03  0.7546771E-02  0.1101537E+00
         21   -1    0    0  502  501  0.00000000000E+00  0.00000000000E+00  0.15423791039E+04  0.15423791039E+04  0.00000000000E+00 0. -1.
         21   -1    0    0  501  502 -0.00000000000E+00 -0.00000000000E+00 -0.47107776214E+02  0.47107776214E+02  0.00000000000E+00 0.  1.
         25    1    1    2    0    0  0.21103899131E+02  0.14580868695E+03  0.32854609492E+03  0.38114706379E+03  0.12500000000E+03 0.  0.
         25    1    1    2    0    0 -0.52200415583E+02 -0.88284054511E+02  0.45780586765E+03  0.48552051463E+03  0.12500000000E+03 0.  0.
         25    1    1    2    0    0  0.31096516451E+02 -0.57524632438E+02  0.70891936513E+03  0.72281930171E+03  0.12500000000E+03 0.  0.
</event>
<event>
 5    0  0.5626800E-005  0.5004574E+03  0.7546771E-02  0.1013660E+00
         21   -1    0    0  502  501  0.00000000000E+00  0.00000000000E+00  0.11937741207E+03  0.11937741207E+03  0.00000000000E+00 0.  1.
         21   -1    0    0  501  502 -0.00000000000E+00 -0.00000000000E+00 -0.20980321299E+04  0.20980321299E+04  0.00000000000E+00 0.  1.
         25    1    1    2    0    0 -0.35888764923E+03  0.25636809355E+02 -0.75837152638E+03  0.84865185017E+03  0.12500000000E+03 0.  0.
         25    1    1    2    0    0 -0.73978397107E+02 -0.63364916991E+02 -0.43012383142E+03  0.45838785575E+03  0.12500000000E+03 0.  0.
         25    1    1    2    0    0  0.43286604633E+03  0.37728107636E+02 -0.79015936004E+03  0.91036983608E+03  0.12500000000E+03 0.  0.
</event>
<event>
 5    0  0.5626800E-005  0.2487421E+03  0.7546771E-02  0.1114102E+00
         21   -1    0    0  502  501  0.00000000000E+00  0.00000000000E+00  0.27006321317E+03  0.27006321317E+03  0.00000000000E+00 0. -1.
         21   -1    0    0  501  502 -0.00000000000E+00 -0.00000000000E+00 -0.22910429626E+03  0.22910429626E+03  0.00000000000E+00 0. -1.
         25    1    1    2    0    0 -0.48968215446E+02  0.12230132233E+03 -0.33516077460E+02  0.18467221506E+03  0.12500000000E+03 0.  0.
         25    1    1    2    0    0 -0.18635062556E+02 -0.24600442225E+02  0.58445518805E+01  0.12888601980E+03  0.12500000000E+03 0.  0.
         25    1    1    2    0    0  0.67603278002E+02 -0.97700880100E+02  0.68630442485E+02  0.18560927457E+03  0.12500000000E+03 0.  0.
</event>
<event>
 5    0  0.5626800E-005  0.4133606E+03  0.7546771E-02  0.1039249E+00
         21   -1    0    0  502  501  0.00000000000E+00  0.00000000000E+00  0.21103788953E+03  0.21103788953E+03  0.00000000000E+00 0.  1.
         21   -1    0    0  501  502 -0.00000000000E+00 -0.00000000000E+00 -0.80965060482E+03  0.80965060482E+03  0.00000000000E+00 0.  1.
         25    1    1    2    0    0  0.22690465215E+03  0.19785939209E+03 -0.96155040212E+02  0.33986004762E+03  0.12500000000E+03 0.  0.
         25    1    1    2    0    0 -0.21566031085E+03 -0.12490715738E+03 -0.19324180568E+03  0.33923231436E+03  0.12500000000E+03 0.  0.
         25    1    1    2    0    0 -0.11244341299E+02 -0.72952234709E+02 -0.30921586940E+03  0.34159613237E+03  0.12500000000E+03 0.  0.
</event>
<event>
 5    0  0.5626800E-005  0.3148574E+03  0.7546771E-02  0.1078041E+00
         21   -1    0    0  502  501  0.00000000000E+00  0.00000000000E+00  0.12820139193E+03  0.12820139193E+03  0.00000000000E+00 0. -1.
         21   -1    0    0  501  502 -0.00000000000E+00 -0.00000000000E+00 -0.77327695066E+03  0.77327695066E+03  0.00000000000E+00 0. -1.
         25    1    1    2    0    0  0.15012112280E+03 -0.47436720337E+01 -0.28218431818E+03  0.34323729891E+03  0.12500000000E+03 0.  0.
         25    1    1    2    0    0 -0.43126453139E+02 -0.31128671189E+01 -0.37043723989E+03  0.39334250927E+03  0.12500000000E+03 0.  0.
         25    1    1    2    0    0 -0.10699466966E+03  0.78565391525E+01  0.75459993501E+01  0.16489853441E+03  0.12500000000E+03 0.  0.
</event>
<event>
 5    0  0.5626800E-005  0.2663710E+03  0.7546771E-02  0.1103375E+00
         21   -1    0    0  502  501  0.00000000000E+00  0.00000000000E+00  0.25432461087E+03  0.25432461087E+03  0.00000000000E+00 0. -1.
         21   -1    0    0  501  502 -0.00000000000E+00 -0.00000000000E+00 -0.27898787821E+03  0.27898787821E+03  0.00000000000E+00 0. -1.
         25    1    1    2    0    0 -0.35189365079E+02 -0.12471228810E+03 -0.10989846337E+03  0.21093629007E+03  0.12500000000E+03 0.  0.
         25    1    1    2    0    0  0.69738644520E+02  0.10649925997E+03  0.33287801270E+02  0.18149007859E+03  0.12500000000E+03 0.  0.
         25    1    1    2    0    0 -0.34549279441E+02  0.18213028130E+02  0.51947394759E+02  0.14088612042E+03  0.12500000000E+03 0.  0.
</event>
<event>
 5    0  0.5626800E-005  0.4369776E+03  0.7546771E-02  0.1031678E+00
         21   -1    0    0  502  501  0.00000000000E+00  0.00000000000E+00  0.75180396918E+03  0.75180396918E+03  0.00000000000E+00 0.  1.
         21   -1    0    0  501  502 -0.00000000000E+00 -0.00000000000E+00 -0.25398826682E+03  0.25398826682E+03  0.00000000000E+00 0.  1.
         25    1    1    2    0    0  0.28415465474E+01  0.51079416106E+02  0.25590441805E+03  0.28936007380E+03  0.12500000000E+03 0.  0.
         25    1    1    2    0    0  0.15265984397E+03 -0.14313210640E+03 -0.13611673644E+03  0.27918559021E+03  0.12500000000E+03 0.  0.
         25    1    1    2    0    0 -0.15550139051E+03  0.92052690290E+02  0.37802802076E+03  0.43724657199E+03  0.12500000000E+03 0.  0.
</event>
<event>
 5    0  0.5626800E-005  0.5933992E+03  0.7546771E-02  0.9919196E-01
         21   -1    0    0  502  501  0.00000000000E+00  0.00000000000E+00  0.13053217193E+04  0.13053217193E+04  0.00000000000E+00 0.  1.
         21   -1    0    0  501  502 -0.00000000000E+00 -0.00000000000E+00 -0.26975925822E+03  0.26975925822E+03  0.00000000000E+00 0.  1.
         25    1    1    2    0    0  0.82753762557E+01 -0.91731108724E+02  0.13330906835E+03  0.20464453538E+03  0.12500000000E+03 0.  0.
         25    1    1    2    0    0 -0.40095543211E+03 -0.19329279725E+03  0.19059041586E+03  0.50007706469E+03  0.12500000000E+03 0.  0.
         25    1    1    2    0    0  0.39268005585E+03  0.28502390598E+03  0.71166297683E+03  0.87035937740E+03  0.12500000000E+03 0.  0.
</event>
<event>
 5    0  0.5626800E-005  0.2734900E+03  0.7546771E-02  0.1099299E+00
         21   -1    0    0  502  501  0.00000000000E+00  0.00000000000E+00  0.11273763115E+03  0.11273763115E+03  0.00000000000E+00 0.  1.
         21   -1    0    0  501  502 -0.00000000000E+00 -0.00000000000E+00 -0.66345882104E+03  0.66345882104E+03  0.00000000000E+00 0.  1.
         25    1    1    2    0    0 -0.93805797046E+01 -0.26496774864E+02  0.10869297036E+01  0.12812593715E+03  0.12500000000E+03 0.  0.
         25    1    1    2    0    0 -0.10207104228E+03  0.48174684618E+02 -0.23574652974E+03  0.28972525640E+03  0.12500000000E+03 0.  0.
         25    1    1    2    0    0  0.11145162198E+03 -0.21677909755E+02 -0.31606158986E+03  0.35834525865E+03  0.12500000000E+03 0.  0.
</event>
<event>
 5    0  0.5626800E-005  0.2390459E+03  0.7546771E-02  0.1120430E+00
         21   -1    0    0  502  501  0.00000000000E+00  0.00000000000E+00  0.66559971324E+02  0.66559971324E+02  0.00000000000E+00 0. -1.
         21   -1    0    0  501  502 -0.00000000000E+00 -0.00000000000E+00 -0.85851847636E+03  0.85851847636E+03  0.00000000000E+00 0. -1.
         25    1    1    2    0    0  0.28629474106E+02 -0.49428275606E+02 -0.26367793096E+03  0.29734466952E+03  0.12500000000E+03 0.  0.
         25    1    1    2    0    0  0.66304554936E+02  0.21014554278E+02 -0.39420270440E+03  0.41935507348E+03  0.12500000000E+03 0.  0.
         25    1    1    2    0    0 -0.94934029043E+02  0.28413721328E+02 -0.13407786968E+03  0.20837870469E+03  0.12500000000E+03 0.  0.
</event>
<event>
 5    0  0.5626800E-005  0.2420943E+03  0.7546771E-02  0.1118405E+00
         21   -1    0    0  502  501  0.00000000000E+00  0.00000000000E+00  0.15387189345E+03  0.15387189345E+03  0.00000000000E+00 0. -1.
         21   -1    0    0  501  502 -0.00000000000E+00 -0.00000000000E+00 -0.38089906114E+03  0.38089906114E+03  0.00000000000E+00 0. -1.
         25    1    1    2    0    0  0.60486134543E+02  0.70080335603E+02 -0.12118339159E+03  0.19718073006E+03  0.12500000000E+03 0.  0.
         25    1    1    2    0    0 -0.11754948397E+03 -0.18350476378E+02 -0.42750588604E+02  0.17778423437E+03  0.12500000000E+03 0.  0.
         25    1    1    2    0    0  0.57063349423E+02 -0.51729859225E+02 -0.63093187499E+02  0.15980599016E+03  0.12500000000E+03 0.  0.
</event>
<event>
 5    0  0.5626800E-005  0.2472356E+03  0.7546771E-02  0.1115064E+00
         21   -1    0    0  502  501  0.00000000000E+00  0.00000000000E+00  0.14061566191E+04  0.14061566191E+04  0.00000000000E+00 0.  1.
         21   -1    0    0  501  502 -0.00000000000E+00 -0.00000000000E+00 -0.43469880197E+02  0.43469880197E+02  0.00000000000E+00 0.  1.
         25    1    1    2    0    0  0.68146911830E+02  0.42611643969E+02  0.48012878320E+03  0.50260163376E+03  0.12500000000E+03 0.  0.
         25    1    1    2    0    0 -0.13273591856E+03 -0.74733023086E+02  0.55984030075E+03  0.59350653843E+03  0.12500000000E+03 0.  0.
         25    1    1    2    0    0  0.64589006727E+02  0.32121379117E+02  0.32271765492E+03  0.35351832708E+03  0.12500000000E+03 0.  0.
</event>
<event>
 5    0  0.5626800E-005  0.3016314E+03  0.7546771E-02  0.1084428E+00
         21   -1    0    0  502  501  0.00000000000E+00  0.00000000000E+00  0.10597762828E+03  0.10597762828E+03  0.00000000000E+00 0. -1.
         21   -1    0    0  501  502 -0.00000000000E+00 -0.00000000000E+00 -0.85849727258E+03  0.85849727258E+03  0.00000000000E+00 0. -1.
         25    1    1    2    0    0  0.52288049898E+02  0.15639181233E+03 -0.21094496882E+03  0.29549148719E+03  0.12500000000E+03 0.  0.
         25    1    1    2    0    0 -0.14166555070E+03 -0.31078973649E+02 -0.30721851212E+03  0.36199895724E+03  0.12500000000E+03 0.  0.
         25    1    1    2    0    0  0.89377500799E+02 -0.12531283868E+03 -0.23435616336E+03  0.30698445643E+03  0.12500000000E+03 0.  0.
</event>
<event>
 5    0  0.5626800E-005  0.2399713E+03  0.7546771E-02  0.1119812E+00
         21   -1    0    0  502  501  0.00000000000E+00  0.00000000000E+00  0.15613685580E+03  0.15613685580E+03  0.00000000000E+00 0.  1.
         21   -1    0    0  501  502 -0.00000000000E+00 -0.00000000000E+00 -0.36881899604E+03  0.36881899604E+03  0.00000000000E+00 0.  1.
         25    1    1    2    0    0  0.10259622299E+02  0.62377229526E+02 -0.18088045605E+03  0.22877700495E+03  0.12500000000E+03 0.  0.
         25    1    1    2    0    0  0.40339514601E+02  0.21844847129E+01  0.29418084965E+02  0.13461973160E+03  0.12500000000E+03 0.  0.
         25    1    1    2    0    0 -0.50599136901E+02 -0.64561714239E+02 -0.61219769151E+02  0.16155911530E+03  0.12500000000E+03 0.  0.
</event>
<event>
 5    0  0.5987669E-005  0.4075486E+03  0.7546771E-02  0.1041197E+00
         21   -1    0    0  502  501  0.00000000000E+00  0.00000000000E+00  0.15727761189E+03  0.15727761189E+03  0.00000000000E+00 0.  1.
         21   -1    0    0  501  502 -0.00000000000E+00 -0.00000000000E+00 -0.10560680895E+04  0.10560680895E+04  0.00000000000E+00 0.  1.
         25    1    1    2    0    0  0.91418398087E+02 -0.12784956500E+02  0.36467580797E+02  0.15961097415E+03  0.12500000000E+03 0.  0.
         25    1    1    2    0    0 -0.52183040916E+01  0.20340773337E+03 -0.40515481677E+03  0.47029497365E+03  0.12500000000E+03 0.  0.
         25    1    1    2    0    0 -0.86200093995E+02 -0.19062277687E+03 -0.53010324162E+03  0.58343975356E+03  0.12500000000E+03 0.  0.
</event>
<event>
 5    0  0.5626800E-005  0.2660491E+03  0.7546771E-02  0.1103562E+00
         21   -1    0    0  502  501  0.00000000000E+00  0.00000000000E+00  0.11127158691E+03  0.11127158691E+03  0.00000000000E+00 0.  1.
         21   -1    0    0  501  502 -0.00000000000E+00 -0.00000000000E+00 -0.63612040056E+03  0.63612040056E+03  0.00000000000E+00 0.  1.
         25    1    1    2    0    0 -0.51783361728E+02 -0.10800799538E+03 -0.91395410541E+02  0.19576865093E+03  0.12500000000E+03 0.  0.
         25    1    1    2    0    0  0.22225032121E+01 -0.43602643379E+02 -0.12198001136E+03  0.18002847886E+03  0.12500000000E+03 0.  0.
         25    1    1    2    0    0  0.49560858515E+02  0.15161063876E+03 -0.31147339175E+03  0.37159485767E+03  0.12500000000E+03 0.  0.
</event>
<event>
 5    0  0.5626800E-005  0.2813691E+03  0.7546771E-02  0.1094944E+00
         21   -1    0    0  502  501  0.00000000000E+00  0.00000000000E+00  0.50411135804E+03  0.50411135804E+03  0.00000000000E+00 0.  1.
         21   -1    0    0  501  502 -0.00000000000E+00 -0.00000000000E+00 -0.15704574946E+03  0.15704574946E+03  0.00000000000E+00 0.  1.
         25    1    1    2    0    0  0.70133610190E+02 -0.74938305304E+01  0.16339191845E+03  0.21747827430E+03  0.12500000000E+03 0.  0.
         25    1    1    2    0    0 -0.32063870516E+02 -0.15011657566E+03  0.73339102246E+02  0.21110827080E+03  0.12500000000E+03 0.  0.
         25    1    1    2    0    0 -0.38069739675E+02  0.15761040619E+03  0.11033458788E+03  0.23257056241E+03  0.12500000000E+03 0.  0.
</event>
<event>
 5    0  0.5626800E-005  0.4021532E+03  0.7546771E-02  0.1043037E+00
         21   -1    0    0  502  501  0.00000000000E+00  0.00000000000E+00  0.49863422576E+03  0.49863422576E+03  0.00000000000E+00 0.  1.
         21   -1    0    0  501  502 -0.00000000000E+00 -0.00000000000E+00 -0.32434029107E+03  0.32434029107E+03  0.00000000000E+00 0.  1.
         25    1    1    2    0    0 -0.16138497471E+03 -0.12694578889E+03 -0.13204534621E+03  0.27426504851E+03  0.12500000000E+03 0.  0.
         25    1    1    2    0    0  0.15408854644E+03  0.10945888449E+02  0.32085382567E+03  0.37740597513E+03  0.12500000000E+03 0.  0.
         25    1    1    2    0    0  0.72964282787E+01  0.11599990044E+03 -0.14514544771E+02  0.17130349318E+03  0.12500000000E+03 0.  0.
</event>
<event>
 5    0  0.5626800E-005  0.2452715E+03  0.7546771E-02  0.1116330E+00
         21   -1    0    0  502  501  0.00000000000E+00  0.00000000000E+00  0.25941742743E+03  0.25941742743E+03  0.00000000000E+00 0. -1.
         21   -1    0    0  501  502 -0.00000000000E+00 -0.00000000000E+00 -0.23189703807E+03  0.23189703807E+03  0.00000000000E+00 0. -1.
         25    1    1    2    0    0 -0.73900612276E+02 -0.55276575118E+02  0.48991928027E+02  0.16291718529E+03  0.12500000000E+03 0.  0.
         25    1    1    2    0    0  0.10725709445E+03  0.93902929073E+02 -0.34655974815E+02  0.19273785562E+03  0.12500000000E+03 0.  0.
         25    1    1    2    0    0 -0.33356482174E+02 -0.38626353955E+02  0.13184436140E+02  0.13565942459E+03  0.12500000000E+03 0.  0.
</event>
<event>
 5    0  0.6175008E-005  0.3527622E+03  0.7546771E-02  0.1061487E+00
         21   -1    0    0  502  501  0.00000000000E+00  0.00000000000E+00  0.34263566750E+03  0.34263566750E+03  0.00000000000E+00 0.  1.
         21   -1    0    0  501  502 -0.00000000000E+00 -0.00000000000E+00 -0.36318801726E+03  0.36318801726E+03  0.00000000000E+00 0.  1.
         25    1    1    2    0    0  0.19212221508E+03  0.32392593449E+02  0.44752751377E+02  0.23577114835E+03  0.12500000000E+03 0.  0.
         25    1    1    2    0    0 -0.11231206701E+03  0.93613577580E+02  0.98107911990E+02  0.21593439906E+03  0.12500000000E+03 0.  0.
         25    1    1    2    0    0 -0.79810148070E+02 -0.12600617103E+03 -0.16341301312E+03  0.25411813735E+03  0.12500000000E+03 0.  0.
</event>
<event>
 5    0  0.5626800E-005  0.2339669E+03  0.7546771E-02  0.1123878E+00
         21   -1    0    0  502  501  0.00000000000E+00  0.00000000000E+00  0.73625975433E+02  0.73625975433E+02  0.00000000000E+00 0. -1.
         21   -1    0    0  501  502 -0.00000000000E+00 -0.00000000000E+00 -0.74349477453E+03  0.74349477453E+03  0.00000000000E+00 0. -1.
         25    1    1    2    0    0  0.47441657660E+02  0.74057563136E+02 -0.16156806710E+03  0.22240610119E+03  0.12500000000E+03 0.  0.
         25    1    1    2    0    0 -0.32727999484E+02 -0.11005764429E+03 -0.35236336014E+03  0.39111218926E+03  0.12500000000E+03 0.  0.
         25    1    1    2    0    0 -0.14713658176E+02  0.36000081156E+02 -0.15593737186E+03  0.20360245952E+03  0.12500000000E+03 0.  0.
</event>
<event>
 5    0  0.5626800E-005  0.3857744E+03  0.7546771E-02  0.1048820E+00
         21   -1    0    0  502  501  0.00000000000E+00  0.00000000000E+00  0.30410475334E+03  0.30410475334E+03  0.00000000000E+00 0. -1.
         21   -1    0    0  501  502 -0.00000000000E+00 -0.00000000000E+00 -0.48937700190E+03  0.48937700190E+03  0.00000000000E+00 0. -1.
         25    1    1    2    0    0  0.73740014130E+02 -0.22896103603E+03  0.80804635883E+02  0.28286946616E+03  0.12500000000E+03 0.  0.
         25    1    1    2    0    0  0.62115648772E+02  0.17096150653E+03 -0.22014019263E+03  0.31172567258E+03  0.12500000000E+03 0.  0.
         25    1    1    2    0    0 -0.13585566290E+03  0.57999529504E+02 -0.45936691813E+02  0.19888661649E+03  0.12500000000E+03 0.  0.
</event>
<event>
 5    0  0.5626800E-005  0.3063087E+03  0.7546771E-02  0.1082129E+00
         21   -1    0    0  502  501  0.00000000000E+00  0.00000000000E+00  0.43682265171E+02  0.43682265171E+02  0.00000000000E+00 0. -1.
         21   -1    0    0  501  502 -0.00000000000E+00 -0.00000000000E+00 -0.21478977748E+04  0.21478977748E+04  0.00000000000E+00 0. -1.
         25    1    1    2    0    0 -0.13492824602E+03 -0.30897587564E+01 -0.45915597585E+03  0.49463561168E+03  0.12500000000E+03 0.  0.
         25    1    1    2    0    0 -0.24424336942E+02 -0.11079648210E+03 -0.47678173822E+03  0.50578477101E+03  0.12500000000E+03 0.  0.
         25    1    1    2    0    0  0.15935258296E+03  0.11388624086E+03 -0.11682777956E+04  0.11911596573E+04  0.12500000000E+03 0.  0.
</event>
<event>
 5    0  0.5918335E-005  0.2710484E+03  0.7546771E-02  0.1100681E+00
         21   -1    0    0  502  501  0.00000000000E+00  0.00000000000E+00  0.13393648231E+03  0.13393648231E+03  0.00000000000E+00 0. -1.
         21   -1    0    0  501  502 -0.00000000000E+00 -0.00000000000E+00 -0.54852296314E+03  0.54852296314E+03  0.00000000000E+00 0. -1.
         25    1    1    2    0    0 -0.24074322486E+02 -0.14895373968E+03 -0.86081908771E+02  0.21401374859E+03  0.12500000000E+03 0.  0.
         25    1    1    2    0    0  0.92096924588E+02  0.65219936199E+02 -0.15394296606E+03  0.22816423996E+03  0.12500000000E+03 0.  0.
         25    1    1    2    0    0 -0.68022602101E+02  0.83733803479E+02 -0.17456160600E+03  0.24028145690E+03  0.12500000000E+03 0.  0.
</event>
<event>
 5    0  0.5626800E-005  0.3920649E+03  0.7546771E-02  0.1046562E+00
         21   -1    0    0  502  501  0.00000000000E+00  0.00000000000E+00  0.38514225070E+03  0.38514225070E+03  0.00000000000E+00 0.  1.
         21   -1    0    0  501  502 -0.00000000000E+00 -0.00000000000E+00 -0.39911197335E+03  0.39911197335E+03  0.00000000000E+00 0.  1.
         25    1    1    2    0    0 -0.14881115000E+03 -0.85017056028E+02  0.28851737908E+01  0.21214613456E+03  0.12500000000E+03 0.  0.
         25    1    1    2    0    0  0.13841462220E+03 -0.10854826833E+03  0.17044377165E+03  0.27498620600E+03  0.12500000000E+03 0.  0.
         25    1    1    2    0    0  0.10396527805E+02  0.19356532436E+03 -0.18729866809E+03  0.29712188349E+03  0.12500000000E+03 0.  0.
</event>
<event>
 5    0  0.5626800E-005  0.4410742E+03  0.7546771E-02  0.1030418E+00
         21   -1    0    0  502  501  0.00000000000E+00  0.00000000000E+00  0.13273271168E+03  0.13273271168E+03  0.00000000000E+00 0.  1.
         21   -1    0    0  501  502 -0.00000000000E+00 -0.00000000000E+00 -0.14657005557E+04  0.14657005557E+04  0.00000000000E+00 0.  1.
         25    1    1    2    0    0 -0.82169285918E+02 -0.22198056051E+02 -0.96431778074E+03  0.97610364588E+03  0.12500000000E+03 0.  0.
         25    1    1    2    0    0  0.40949215218E+02 -0.20217445582E+03 -0.18227877278E+03  0.30232747116E+03  0.12500000000E+03 0.  0.
         25    1    1    2    0    0  0.41220070700E+02  0.22437251188E+03 -0.18637129054E+03  0.32000215039E+03  0.12500000000E+03 0.  0.
</event>
<event>
 5    0  0.5626800E-005  0.2051369E+03  0.7546771E-02  0.1145476E+00
         21   -1    0    0  502  501  0.00000000000E+00  0.00000000000E+00  0.40544267271E+03  0.40544267271E+03  0.00000000000E+00 0.  1.
         21   -1    0    0  501  502 -0.00000000000E+00 -0.00000000000E+00 -0.10379058220E+03  0.10379058220E+03  0.00000000000E+00 0.  1.
         25    1    1    2    0    0  0.20577599983E+02 -0.23172415781E+02  0.81573983986E+02  0.15244577179E+03  0.12500000000E+03 0.  0.
         25    1    1    2    0    0 -0.27984458451E+02  0.60703975778E+02  0.15738272331E+03  0.21180751683E+03  0.12500000000E+03 0.  0.
         25    1    1    2    0    0  0.74068584682E+01 -0.37531559997E+02  0.62695383214E+02  0.14497996629E+03  0.12500000000E+03 0.  0.
</event>
<event>
 5    0  0.5626800E-005  0.5245390E+03  0.7546771E-02  0.1007565E+00
         21   -1    0    0  502  501  0.00000000000E+00  0.00000000000E+00  0.50823146506E+03  0.50823146506E+03  0.00000000000E+00 0. -1.
         21   -1    0    0  501  502 -0.00000000000E+00 -0.00000000000E+00 -0.54136974999E+03  0.54136974999E+03  0.00000000000E+00 0. -1.
         25    1    1    2    0    0 -0.36475226498E+03  0.94129500999E+02 -0.15118136749E+03  0.42471800484E+03  0.12500000000E+03 0.  0.
         25    1    1    2    0    0  0.39822024365E+02 -0.25833482590E+02  0.21849115008E+03  0.25615726636E+03  0.12500000000E+03 0.  0.
         25    1    1    2    0    0  0.32493024061E+03 -0.68296018409E+02 -0.10044806751E+03  0.36872594384E+03  0.12500000000E+03 0.  0.
</event>
<event>
 5    0  0.5626800E-005  0.3313751E+03  0.7546771E-02  0.1070530E+00
         21   -1    0    0  502  501  0.00000000000E+00  0.00000000000E+00  0.11257772637E+03  0.11257772637E+03  0.00000000000E+00 0.  1.
         21   -1    0    0  501  502 -0.00000000000E+00 -0.00000000000E+00 -0.97541026972E+03  0.97541026972E+03  0.00000000000E+00 0.  1.
         25    1    1    2    0    0  0.23942485198E+03  0.21794241338E+01 -0.38058237697E+03  0.46668721355E+03  0.12500000000E+03 0.  0.
         25    1    1    2    0    0 -0.46188471487E+02  0.69840841146E+02 -0.17766770946E+03  0.23281308592E+03  0.12500000000E+03 0.  0.
         25    1    1    2    0    0 -0.19323638049E+03 -0.72020265280E+02 -0.30458245692E+03  0.38848769661E+03  0.12500000000E+03 0.  0.
</event>
<event>
 5    0  0.5626800E-005  0.4399539E+03  0.7546771E-02  0.1030761E+00
         21   -1    0    0  502  501  0.00000000000E+00  0.00000000000E+00  0.11479175849E+04  0.11479175849E+04  0.00000000000E+00 0. -1.
         21   -1    0    0  501  502 -0.00000000000E+00 -0.00000000000E+00 -0.16861785492E+03  0.16861785492E+03  0.00000000000E+00 0.  1.
         25    1    1    2    0    0  0.24359009275E+03 -0.43150402472E+02  0.76026536486E+03  0.80921351665E+03  0.12500000000E+03 0.  0.
         25    1    1    2    0    0 -0.28013980557E+03 -0.22543231776E+02  0.17974655945E+03  0.35625880143E+03  0.12500000000E+03 0.  0.
         25    1    1    2    0    0  0.36549712813E+02  0.65693634248E+02  0.39287805712E+02  0.15106312179E+03  0.12500000000E+03 0.  0.
</event>
<event>
 5    0  0.5626800E-005  0.1999654E+03  0.7546771E-02  0.1149768E+00
         21   -1    0    0  502  501  0.00000000000E+00  0.00000000000E+00  0.67109804877E+03  0.67109804877E+03  0.00000000000E+00 0.  1.
         21   -1    0    0  501  502 -0.00000000000E+00 -0.00000000000E+00 -0.59583182867E+02  0.59583182867E+02  0.00000000000E+00 0.  1.
         25    1    1    2    0    0 -0.23612083211E+01  0.43893275417E+02  0.12844153138E+03  0.18453840228E+03  0.12500000000E+03 0.  0.
         25    1    1    2    0    0 -0.73152565854E+01 -0.21814841090E+02  0.25616469887E+03  0.28596285286E+03  0.12500000000E+03 0.  0.
         25    1    1    2    0    0  0.96764649064E+01 -0.22078434327E+02  0.22690863565E+03  0.26017997649E+03  0.12500000000E+03 0.  0.
</event>
<event>
 5    0  0.5626800E-005  0.4246520E+03  0.7546771E-02  0.1035563E+00
         21   -1    0    0  502  501  0.00000000000E+00  0.00000000000E+00  0.42254991692E+03  0.42254991692E+03  0.00000000000E+00 0. -1.
         21   -1    0    0  501  502 -0.00000000000E+00 -0.00000000000E+00 -0.42676455273E+03  0.42676455273E+03  0.00000000000E+00 0. -1.
         25    1    1    2    0    0  0.12564793438E+03  0.11125655347E+03 -0.21544350101E+03  0.30034368019E+03  0.12500000000E+03 0.  0.
         25    1    1    2    0    0  0.11231742131E+03  0.44220855874E+02  0.63511093009E+00  0.17377022354E+03  0.12500000000E+03 0.  0.
         25    1    1    2    0    0 -0.23796535569E+03 -0.15547740934E+03  0.21059375426E+03  0.37520056591E+03  0.12500000000E+03 0.  0.
</event>
<event>
 5    0  0.5626800E-005  0.3639237E+03  0.7546771E-02  0.1057041E+00
         21   -1    0    0  502  501  0.00000000000E+00  0.00000000000E+00  0.40403344300E+03  0.40403344300E+03  0.00000000000E+00 0. -1.
         21   -1    0    0  501  502 -0.00000000000E+00 -0.00000000000E+00 -0.32779569666E+03  0.32779569666E+03  0.00000000000E+00 0. -1.
         25    1    1    2    0    0  0.54990709584E+02  0.72153782150E+02 -0.50512438727E+02  0.16250123964E+03  0.12500000000E+03 0.  0.
         25    1    1    2    0    0 -0.19635836238E+02 -0.75272398188E+02 -0.18214898808E+03  0.23421091745E+03  0.12500000000E+03 0.  0.
         25    1    1    2    0    0 -0.35354873346E+02  0.31186160378E+01  0.30889917315E+03  0.33511698257E+03  0.12500000000E+03 0.  0.
</event>
<event>
 5    0  0.5626800E-005  0.2950086E+03  0.7546771E-02  0.1087763E+00
         21   -1    0    0  502  501  0.00000000000E+00  0.00000000000E+00  0.30996672848E+03  0.30996672848E+03  0.00000000000E+00 0.  1.
         21   -1    0    0  501  502 -0.00000000000E+00 -0.00000000000E+00 -0.28077232178E+03  0.28077232178E+03  0.00000000000E+00 0.  1.
         25    1    1    2    0    0 -0.90390424287E+02 -0.19233344556E+02  0.74419826487E+01  0.15563011743E+03  0.12500000000E+03 0.  0.
         25    1    1    2    0    0 -0.98088117504E+02 -0.51864917745E+02  0.88082401070E+02  0.18893056361E+03  0.12500000000E+03 0.  0.
         25    1    1    2    0    0  0.18847854179E+03  0.71098262301E+02 -0.66329977022E+02  0.24617836922E+03  0.12500000000E+03 0.  0.
</event>
<event>
 5    0  0.5626800E-005  0.2450901E+03  0.7546771E-02  0.1116448E+00
         21   -1    0    0  502  501  0.00000000000E+00  0.00000000000E+00  0.56764300054E+02  0.56764300054E+02  0.00000000000E+00 0. -1.
         21   -1    0    0  501  502 -0.00000000000E+00 -0.00000000000E+00 -0.10582208386E+04  0.10582208386E+04  0.00000000000E+00 0. -1.
         25    1    1    2    0    0 -0.43401480778E+02 -0.56519511082E+02 -0.24977945871E+03  0.28825842860E+03  0.12500000000E+03 0.  0.
         25    1    1    2    0    0  0.20413119411E+02 -0.64664216349E+02 -0.18425355052E+03  0.23274992417E+03  0.12500000000E+03 0.  0.
         25    1    1    2    0    0  0.22988361367E+02  0.12118372743E+03 -0.56742352936E+03  0.59397678593E+03  0.12500000000E+03 0.  0.
</event>
<event>
 5    0  0.5626800E-005  0.4900027E+03  0.7546771E-02  0.1016422E+00
         21   -1    0    0  502  501  0.00000000000E+00  0.00000000000E+00  0.43799322910E+03  0.43799322910E+03  0.00000000000E+00 0. -1.
         21   -1    0    0  501  502 -0.00000000000E+00 -0.00000000000E+00 -0.54818811416E+03  0.54818811416E+03  0.00000000000E+00 0.  1.
         25    1    1    2    0    0 -0.13585772477E+03  0.20583251065E+02  0.59163725970E+02  0.19495214304E+03  0.12500000000E+03 0.  0.
         25    1    1    2    0    0  0.42268077137E+03 -0.62275068284E+02 -0.16737332326E+03  0.47557969674E+03  0.12500000000E+03 0.  0.
         25    1    1    2    0    0 -0.28682304660E+03  0.41691817218E+02 -0.19852877731E+01  0.31564950348E+03  0.12500000000E+03 0.  0.
</event>
<event>
 5    0  0.6196643E-005  0.3023463E+03  0.7546771E-02  0.1084074E+00
         21   -1    0    0  502  501  0.00000000000E+00  0.00000000000E+00  0.47850599977E+03  0.47850599977E+03  0.00000000000E+00 0. -1.
         21   -1    0    0  501  502 -0.00000000000E+00 -0.00000000000E+00 -0.19103900617E+03  0.19103900617E+03  0.00000000000E+00 0. -1.
         25    1    1    2    0    0 -0.37080624084E+02  0.14798980522E+03  0.61773793939E+02  0.20668080886E+03  0.12500000000E+03 0.  0.
         25    1    1    2    0    0  0.41260587931E+02 -0.16607247944E+03  0.91097241352E+01  0.21210962170E+03  0.12500000000E+03 0.  0.
         25    1    1    2    0    0 -0.41799638469E+01  0.18082674215E+02  0.21658347552E+03  0.25075457538E+03  0.12500000000E+03 0.  0.
</event>
<event>
 5    0  0.5626800E-005  0.3918658E+03  0.7546771E-02  0.1046633E+00
         21   -1    0    0  502  501  0.00000000000E+00  0.00000000000E+00  0.34212213244E+03  0.34212213244E+03  0.00000000000E+00 0.  1.
         21   -1    0    0  501  502 -0.00000000000E+00 -0.00000000000E+00 -0.44884210155E+03  0.44884210155E+03  0.00000000000E+00 0.  1.
         25    1    1    2    0    0 -0.14761325489E+03 -0.10263688366E+03  0.49650497525E+01  0.21902888993E+03  0.12500000000E+03 0.  0.
         25    1    1    2    0    0 -0.58658665826E+02  0.11890168496E+03 -0.23755315595E+03  0.29939096791E+03  0.12500000000E+03 0.  0.
         25    1    1    2    0    0  0.20627192071E+03 -0.16264801298E+02  0.12586813709E+03  0.27254437615E+03  0.12500000000E+03 0.  0.
</event>
<event>
 5    0  0.5626800E-005  0.4145035E+03  0.7546771E-02  0.1038870E+00
         21   -1    0    0  502  501  0.00000000000E+00  0.00000000000E+00  0.11528789882E+03  0.11528789882E+03  0.00000000000E+00 0. -1.
         21   -1    0    0  501  502 -0.00000000000E+00 -0.00000000000E+00 -0.14902966463E+04  0.14902966463E+04  0.00000000000E+00 0. -1.
         25    1    1    2    0    0 -0.17072876658E+02  0.18066629474E+02 -0.20693726085E+03  0.24303480439E+03  0.12500000000E+03 0.  0.
         25    1    1    2    0    0  0.71651570934E+02  0.27845858381E+03 -0.29511252587E+03  0.43056884866E+03  0.12500000000E+03 0.  0.
         25    1    1    2    0    0 -0.54578694276E+02 -0.29652521329E+03 -0.87295896079E+03  0.93198089208E+03  0.12500000000E+03 0.  0.
</event>
<event>
 5    0  0.8172330E-005  0.3750392E+03  0.7546771E-02  0.1052783E+00
         21   -1    0    0  502  501  0.00000000000E+00  0.00000000000E+00  0.61823867029E+03  0.61823867029E+03  0.00000000000E+00 0. -1.
         21   -1    0    0  501  502 -0.00000000000E+00 -0.00000000000E+00 -0.22750824576E+03  0.22750824576E+03  0.00000000000E+00 0. -1.
         25    1    1    2    0    0  0.38946470709E+02  0.91103323889E+02  0.29577423384E+03  0.33604172450E+03  0.12500000000E+03 0.  0.
         25    1    1    2    0    0 -0.46573097441E+02 -0.21220374927E+03  0.18695906423E+03  0.31269502124E+03  0.12500000000E+03 0.  0.
         25    1    1    2    0    0  0.76266267314E+01  0.12110042539E+03 -0.92002873539E+02  0.19701017030E+03  0.12500000000E+03 0.  0.
</event>
<event>
 5    0  0.5626800E-005  0.3608366E+03  0.7546771E-02  0.1058253E+00
         21   -1    0    0  502  501  0.00000000000E+00  0.00000000000E+00  0.89542738678E+03  0.89542738678E+03  0.00000000000E+00 0.  1.
         21   -1    0    0  501  502 -0.00000000000E+00 -0.00000000000E+00 -0.14540884085E+03  0.14540884085E+03  0.00000000000E+00 0.  1.
         25    1    1    2    0    0 -0.28902957059E+01  0.88583839182E+02  0.35085531417E+03  0.38285754774E+03  0.12500000000E+03 0.  0.
         25    1    1    2    0    0  0.14204249097E+03  0.95755772702E+02  0.44521682506E+02  0.21668506515E+03  0.12500000000E+03 0.  0.
         25    1    1    2    0    0 -0.13915219526E+03 -0.18433961188E+03  0.35464154925E+03  0.44129361474E+03  0.12500000000E+03 0.  0.
</event>
<event>
 5    0  0.5626800E-005  0.2610060E+03  0.7546771E-02  0.1106540E+00
         21   -1    0    0  502  501  0.00000000000E+00  0.00000000000E+00  0.50146541716E+03  0.50146541716E+03  0.00000000000E+00 0.  1.
         21   -1    0    0  501  502 -0.00000000000E+00 -0.00000000000E+00 -0.13585012366E+03  0.13585012366E+03  0.00000000000E+00 0.  1.
         25    1    1    2    0    0  0.76977849525E+02 -0.24019519567E+02  0.21127560762E+03  0.25838906519E+03  0.12500000000E+03 0.  0.
         25    1    1    2    0    0  0.27575016492E+02 -0.66595728401E+02  0.12351050977E+03  0.18993477460E+03  0.12500000000E+03 0.  0.
         25    1    1    2    0    0 -0.10455286602E+03  0.90615247969E+02  0.30829176107E+02  0.18899170103E+03  0.12500000000E+03 0.  0.
</event>
<event>
 5    0  0.5626800E-005  0.3242729E+03  0.7546771E-02  0.1073699E+00
         21   -1    0    0  502  501  0.00000000000E+00  0.00000000000E+00  0.14369978719E+03  0.14369978719E+03  0.00000000000E+00 0.  1.
         21   -1    0    0  501  502 -0.00000000000E+00 -0.00000000000E+00 -0.73175429528E+03  0.73175429528E+03  0.00000000000E+00 0.  1.
         25    1    1    2    0    0  0.91791999538E+01 -0.78145288331E+02 -0.26480374918E+03  0.30321109706E+03  0.12500000000E+03 0.  0.
         25    1    1    2    0    0 -0.59640756312E+02  0.23041139027E+03 -0.18486038763E+03  0.32625877995E+03  0.12500000000E+03 0.  0.
         25    1    1    2    0    0  0.50461556358E+02 -0.15226610194E+03 -0.13839037127E+03  0.24598420545E+03  0.12500000000E+03 0.  0.
</event>
<event>
 5    0  0.5626800E-005  0.2389391E+03  0.7546771E-02  0.1120502E+00
         21   -1    0    0  502  501  0.00000000000E+00  0.00000000000E+00  0.36196356128E+03  0.36196356128E+03  0.00000000000E+00 0.  1.
         21   -1    0    0  501  502 -0.00000000000E+00 -0.00000000000E+00 -0.15772829065E+03  0.15772829065E+03  0.00000000000E+00 0.  1.
         25    1    1    2    0    0  0.76774284289E+02  0.50581253825E+02  0.87403057065E+02  0.17809280825E+03  0.12500000000E+03 0.  0.
         25    1    1    2    0    0 -0.26403628705E+02 -0.69202059226E+02  0.14209129771E+03  0.20322650785E+03  0.12500000000E+03 0.  0.
         25    1    1    2    0    0 -0.50370655584E+02  0.18620805401E+02 -0.25259084144E+02  0.13837253582E+03  0.12500000000E+03 0.  0.
</event>
<event>
 5    0  0.5626800E-005  0.5740368E+03  0.7546771E-02  0.9960785E-01
         21   -1    0    0  502  501  0.00000000000E+00  0.00000000000E+00  0.33164918755E+04  0.33164918755E+04  0.00000000000E+00 0. -1.
         21   -1    0    0  501  502 -0.00000000000E+00 -0.00000000000E+00 -0.99357457737E+02  0.99357457737E+02  0.00000000000E+00 0. -1.
         25    1    1    2    0    0 -0.30651529865E+03 -0.19857751760E+03  0.19216797310E+04  0.19600670007E+04  0.12500000000E+03 0.  0.
         25    1    1    2    0    0  0.38646466048E+03  0.18149340645E+03  0.61448445561E+03  0.75862437120E+03  0.12500000000E+03 0.  0.
         25    1    1    2    0    0 -0.79949361829E+02  0.17084111150E+02  0.68097023117E+03  0.69715796133E+03  0.12500000000E+03 0.  0.
</event>
<event>
 5    0  0.5626800E-005  0.4569502E+03  0.7546771E-02  0.1025669E+00
         21   -1    0    0  502  501  0.00000000000E+00  0.00000000000E+00  0.34894957420E+03  0.34894957420E+03  0.00000000000E+00 0. -1.
         21   -1    0    0  501  502 -0.00000000000E+00 -0.00000000000E+00 -0.59837732503E+03  0.59837732503E+03  0.00000000000E+00 0. -1.
         25    1    1    2    0    0  0.17622087736E+03  0.64979348592E+02 -0.45607392953E+03  0.50882663311E+03  0.12500000000E+03 0.  0.
         25    1    1    2    0    0 -0.15015206118E+03 -0.83194107472E+02  0.22306431149E+02  0.21351692641E+03  0.12500000000E+03 0.  0.
         25    1    1    2    0    0 -0.26068816181E+02  0.18214758880E+02  0.18433974755E+03  0.22498333971E+03  0.12500000000E+03 0.  0.
</event>
<event>
 5    0  0.5626800E-005  0.5428184E+03  0.7546771E-02  0.1003170E+00
         21   -1    0    0  502  501  0.00000000000E+00  0.00000000000E+00  0.53119850881E+03  0.53119850881E+03  0.00000000000E+00 0. -1.
         21   -1    0    0  501  502 -0.00000000000E+00 -0.00000000000E+00 -0.55469249917E+03  0.55469249917E+03  0.00000000000E+00 0. -1.
         25    1    1    2    0    0  0.16562448765E+03 -0.33969480752E+03 -0.18474800415E+03  0.43884035617E+03  0.12500000000E+03 0.  0.
         25    1    1    2    0    0  0.64909873181E+02  0.56744117290E+02 -0.99374990391E+02  0.18147610090E+03  0.12500000000E+03 0.  0.
         25    1    1    2    0    0 -0.23053436083E+03  0.28295069023E+03  0.26062900418E+03  0.46557455090E+03  0.12500000000E+03 0.  0.
</event>
<event>
 5    0  0.5626800E-005  0.2374752E+03  0.7546771E-02  0.1121486E+00
         21   -1    0    0  502  501  0.00000000000E+00  0.00000000000E+00  0.24291166392E+03  0.24291166392E+03  0.00000000000E+00 0. -1.
         21   -1    0    0  501  502 -0.00000000000E+00 -0.00000000000E+00 -0.23216035502E+03  0.23216035502E+03  0.00000000000E+00 0. -1.
         25    1    1    2    0    0 -0.35589948374E+02  0.22969589505E+02  0.12579498740E+02  0.13258012768E+03  0.12500000000E+03 0.  0.
         25    1    1    2    0    0  0.68037710710E+02 -0.63608541941E+02 -0.90881548459E+02  0.18044287888E+03  0.12500000000E+03 0.  0.
         25    1    1    2    0    0 -0.32447762336E+02  0.40638952435E+02  0.89053358620E+02  0.16204901239E+03  0.12500000000E+03 0.  0.
</event>
<event>
 5    0  0.5626800E-005  0.3517627E+03  0.7546771E-02  0.1061894E+00
         21   -1    0    0  502  501  0.00000000000E+00  0.00000000000E+00  0.13847984736E+04  0.13847984736E+04  0.00000000000E+00 0.  1.
         21   -1    0    0  501  502 -0.00000000000E+00 -0.00000000000E+00 -0.89353776270E+02  0.89353776270E+02  0.00000000000E+00 0.  1.
         25    1    1    2    0    0  0.14374049207E+03  0.20172804443E+02  0.58039839961E+03  0.61119192842E+03  0.12500000000E+03 0.  0.
         25    1    1    2    0    0 -0.21529864995E+03  0.11987301180E+03  0.34614114452E+03  0.44290150097E+03  0.12500000000E+03 0.  0.
         25    1    1    2    0    0  0.71558157879E+02 -0.14004581624E+03  0.36890515317E+03  0.42005882045E+03  0.12500000000E+03 0.  0.
</event>
<event>
 5    0  0.5626800E-005  0.3883349E+03  0.7546771E-02  0.1047895E+00
         21   -1    0    0  502  501  0.00000000000E+00  0.00000000000E+00  0.23969638035E+03  0.23969638035E+03  0.00000000000E+00 0. -1.
         21   -1    0    0  501  502 -0.00000000000E+00 -0.00000000000E+00 -0.62914574327E+03  0.62914574327E+03  0.00000000000E+00 0. -1.
         25    1    1    2    0    0  0.56934767546E+02  0.84545810762E+02 -0.39057250244E+03  0.42256531038E+03  0.12500000000E+03 0.  0.
         25    1    1    2    0    0 -0.88685527505E+02 -0.21420699633E+03  0.16379130460E+01  0.26339598103E+03  0.12500000000E+03 0.  0.
         25    1    1    2    0    0  0.31750759958E+02  0.12966118556E+03 -0.51477353113E+00  0.18288083221E+03  0.12500000000E+03 0.  0.
</event>
<event>
 5    0  0.5626800E-005  0.2582402E+03  0.7546771E-02  0.1108205E+00
         21   -1    0    0  502  501  0.00000000000E+00  0.00000000000E+00  0.40423873159E+03  0.40423873159E+03  0.00000000000E+00 0.  1.
         21   -1    0    0  501  502 -0.00000000000E+00 -0.00000000000E+00 -0.16497177500E+03  0.16497177500E+03  0.00000000000E+00 0.  1.
         25    1    1    2    0    0 -0.57012443464E+02  0.13618487976E+03  0.62793086125E+02  0.20338316511E+03  0.12500000000E+03 0.  0.
         25    1    1    2    0    0  0.23898837956E+02 -0.25419564745E+01  0.34550217992E+02  0.13189516125E+03  0.12500000000E+03 0.  0.
         25    1    1    2    0    0  0.33113605508E+02 -0.13364292328E+03  0.14192365247E+03  0.23393218022E+03  0.12500000000E+03 0.  0.
</event>
<event>
 5    0  0.5626800E-005  0.3518110E+03  0.7546771E-02  0.1061874E+00
         21   -1    0    0  502  501  0.00000000000E+00  0.00000000000E+00  0.26810524513E+03  0.26810524513E+03  0.00000000000E+00 0. -1.
         21   -1    0    0  501  502 -0.00000000000E+00 -0.00000000000E+00 -0.46165080054E+03  0.46165080054E+03  0.00000000000E+00 0. -1.
         25    1    1    2    0    0 -0.29449279961E+02 -0.25200601966E+02 -0.14453548932E+03  0.19498163530E+03  0.12500000000E+03 0.  0.
         25    1    1    2    0    0  0.16810973778E+03  0.17907323997E+03 -0.88903466847E+02  0.28958062026E+03  0.12500000000E+03 0.  0.
         25    1    1    2    0    0 -0.13866045782E+03 -0.15387263801E+03  0.39893400756E+02  0.24519379012E+03  0.12500000000E+03 0.  0.
</event>
<event>
 5    0  0.5626800E-005  0.2703612E+03  0.7546771E-02  0.1101073E+00
         21   -1    0    0  502  501  0.00000000000E+00  0.00000000000E+00  0.61162757299E+03  0.61162757299E+03  0.00000000000E+00 0.  1.
         21   -1    0    0  501  502 -0.00000000000E+00 -0.00000000000E+00 -0.11950928079E+03  0.11950928079E+03  0.00000000000E+00 0.  1.
         25    1    1    2    0    0 -0.12664892722E+03 -0.64982561104E+02  0.13801006963E+03  0.23438102170E+03  0.12500000000E+03 0.  0.
         25    1    1    2    0    0  0.57286196453E+02 -0.29656689112E+02  0.53109440038E+02  0.15035571201E+03  0.12500000000E+03 0.  0.
         25    1    1    2    0    0  0.69362730766E+02  0.94639250216E+02  0.30099878253E+03  0.34640012007E+03  0.12500000000E+03 0.  0.
</event>
<event>
 5    0  0.5626800E-005  0.2966035E+03  0.7546771E-02  0.1086951E+00
         21   -1    0    0  502  501  0.00000000000E+00  0.00000000000E+00  0.98315127031E+02  0.98315127031E+02  0.00000000000E+00 0. -1.
         21   -1    0    0  501  502 -0.00000000000E+00 -0.00000000000E+00 -0.89481299666E+03  0.89481299666E+03  0.00000000000E+00 0. -1.
         25    1    1    2    0    0 -0.69515989221E+02  0.77463075933E+02 -0.36901238416E+03  0.40327179489E+03  0.12500000000E+03 0.  0.
         25    1    1    2    0    0  0.17913904573E+03 -0.34953059598E+01 -0.28291074542E+03  0.35744440790E+03  0.12500000000E+03 0.  0.
         25    1    1    2    0    0 -0.10962305651E+03 -0.73967769974E+02 -0.14457474006E+03  0.23241192090E+03  0.12500000000E+03 0.  0.
</event>
<event>
 5    0  0.5626800E-005  0.3854415E+03  0.7546771E-02  0.1048941E+00
         21   -1    0    0  502  501  0.00000000000E+00  0.00000000000E+00  0.23404756478E+03  0.23404756478E+03  0.00000000000E+00 0.  1.
         21   -1    0    0  501  502 -0.00000000000E+00 -0.00000000000E+00 -0.63476471646E+03  0.63476471646E+03  0.00000000000E+00 0.  1.
         25    1    1    2    0    0 -0.20575134316E+02 -0.91811829320E+02 -0.23864680477E+03  0.28535950235E+03  0.12500000000E+03 0.  0.
         25    1    1    2    0    0 -0.43269482329E+02  0.27459560664E+03 -0.17708820370E+03  0.35250564134E+03  0.12500000000E+03 0.  0.
         25    1    1    2    0    0  0.63844616644E+02 -0.18278377731E+03  0.15017856791E+02  0.23094713756E+03  0.12500000000E+03 0.  0.
</event>
<event>
 5    0  0.5708084E-005  0.2828595E+03  0.7546771E-02  0.1094137E+00
         21   -1    0    0  502  501  0.00000000000E+00  0.00000000000E+00  0.22167728148E+03  0.22167728148E+03  0.00000000000E+00 0. -1.
         21   -1    0    0  501  502 -0.00000000000E+00 -0.00000000000E+00 -0.36092793257E+03  0.36092793257E+03  0.00000000000E+00 0. -1.
         25    1    1    2    0    0 -0.58869503182E+01 -0.76274776502E+02 -0.50542858000E+02  0.15502283125E+03  0.12500000000E+03 0.  0.
         25    1    1    2    0    0  0.60605838650E+02  0.14987608733E+03  0.59768924364E+02  0.21291602465E+03  0.12500000000E+03 0.  0.
         25    1    1    2    0    0 -0.54718888331E+02 -0.73601310829E+02 -0.14847671745E+03  0.21466635815E+03  0.12500000000E+03 0.  0.
</event>
<event>
 5    0  0.5626800E-005  0.3216288E+03  0.7546771E-02  0.1074902E+00
         21   -1    0    0  502  501  0.00000000000E+00  0.00000000000E+00  0.64718644445E+03  0.64718644445E+03  0.00000000000E+00 0. -1.
         21   -1    0    0  501  502 -0.00000000000E+00 -0.00000000000E+00 -0.15983812173E+03  0.15983812173E+03  0.00000000000E+00 0. -1.
         25    1    1    2    0    0 -0.72064851749E+02 -0.80118028080E+02  0.38774359696E+03  0.42140519487E+03  0.12500000000E+03 0.  0.
         25    1    1    2    0    0  0.71515206804E+02 -0.12975944749E+02  0.16252782420E+03  0.21753871744E+03  0.12500000000E+03 0.  0.
         25    1    1    2    0    0  0.54964494513E+00  0.93093972830E+02 -0.62923098441E+02  0.16808065387E+03  0.12500000000E+03 0.  0.
</event>
<event>
 5    0  0.5626800E-005  0.3063770E+03  0.7546771E-02  0.1082096E+00
         21   -1    0    0  502  501  0.00000000000E+00  0.00000000000E+00  0.28991883850E+03  0.28991883850E+03  0.00000000000E+00 0. -1.
         21   -1    0    0  501  502 -0.00000000000E+00 -0.00000000000E+00 -0.32376938831E+03  0.32376938831E+03  0.00000000000E+00 0.  1.
         25    1    1    2    0    0  0.12382251749E+03  0.35029421655E+02 -0.12755069688E+03  0.22012100421E+03  0.12500000000E+03 0.  0.
         25    1    1    2    0    0 -0.18003133777E+03  0.10455701147E+02  0.11478178863E+03  0.24762968979E+03  0.12500000000E+03 0.  0.
         25    1    1    2    0    0  0.56208820279E+02 -0.45485122802E+02 -0.21081641550E+02  0.14593753281E+03  0.12500000000E+03 0.  0.
</event>
<event>
 5    0  0.5626800E-005  0.2901058E+03  0.7546771E-02  0.1090294E+00
         21   -1    0    0  502  501  0.00000000000E+00  0.00000000000E+00  0.94263150162E+02  0.94263150162E+02  0.00000000000E+00 0. -1.
         21   -1    0    0  501  502 -0.00000000000E+00 -0.00000000000E+00 -0.89283421109E+03  0.89283421109E+03  0.00000000000E+00 0. -1.
         25    1    1    2    0    0  0.13595567271E+03  0.10997262583E+03 -0.26628378498E+03  0.34221335087E+03  0.12500000000E+03 0.  0.
         25    1    1    2    0    0 -0.54546245878E+02 -0.44070446170E+02 -0.80106053229E+02  0.16419341317E+03  0.12500000000E+03 0.  0.
         25    1    1    2    0    0 -0.81409426833E+02 -0.65902179658E+02 -0.45218122272E+03  0.48069059721E+03  0.12500000000E+03 0.  0.
</event>
<event>
 5    0  0.5626800E-005  0.4660239E+03  0.7546771E-02  0.1023048E+00
         21   -1    0    0  502  501  0.00000000000E+00  0.00000000000E+00  0.95064426523E+03  0.95064426523E+03  0.00000000000E+00 0.  1.
         21   -1    0    0  501  502 -0.00000000000E+00 -0.00000000000E+00 -0.22845377633E+03  0.22845377633E+03  0.00000000000E+00 0.  1.
         25    1    1    2    0    0  0.26259367289E+03 -0.18023220459E+03  0.48044531777E+03  0.58982352274E+03  0.12500000000E+03 0.  0.
         25    1    1    2    0    0 -0.21018955753E+03  0.14149834893E+03  0.32094045539E+03  0.42758532336E+03  0.12500000000E+03 0.  0.
         25    1    1    2    0    0 -0.52404115361E+02  0.38733855662E+02 -0.79195284255E+02  0.16168919546E+03  0.12500000000E+03 0.  0.
</event>
<event>
 5    0  0.5714235E-005  0.4681845E+03  0.7546771E-02  0.1022434E+00
         21   -1    0    0  502  501  0.00000000000E+00  0.00000000000E+00  0.32178527490E+03  0.32178527490E+03  0.00000000000E+00 0. -1.
         21   -1    0    0  501  502 -0.00000000000E+00 -0.00000000000E+00 -0.68118946669E+03  0.68118946669E+03  0.00000000000E+00 0. -1.
         25    1    1    2    0    0 -0.13589439137E+03  0.42863148643E+02  0.78630677012E+02  0.20521286140E+03  0.12500000000E+03 0.  0.
         25    1    1    2    0    0  0.10350152191E+03 -0.31726584452E+03 -0.17834368153E+03  0.39849924703E+03  0.12500000000E+03 0.  0.
         25    1    1    2    0    0  0.32392869461E+02  0.27440269588E+03 -0.25969118727E+03  0.39926263316E+03  0.12500000000E+03 0.  0.
</event>
<event>
 5    0  0.5626800E-005  0.2874792E+03  0.7546771E-02  0.1091673E+00
         21   -1    0    0  502  501  0.00000000000E+00  0.00000000000E+00  0.13275799834E+03  0.13275799834E+03  0.00000000000E+00 0. -1.
         21   -1    0    0  501  502 -0.00000000000E+00 -0.00000000000E+00 -0.62251831885E+03  0.62251831885E+03  0.00000000000E+00 0. -1.
         25    1    1    2    0    0  0.17905168842E+03 -0.29365780062E+02 -0.29426784473E+03  0.36761449999E+03  0.12500000000E+03 0.  0.
         25    1    1    2    0    0 -0.80885955213E+02 -0.15482059411E+02 -0.15930513579E+03  0.21859862352E+03  0.12500000000E+03 0.  0.
         25    1    1    2    0    0 -0.98165733205E+02  0.44847839473E+02 -0.36187339993E+02  0.16906319368E+03  0.12500000000E+03 0.  0.
</event>
<event>
 5    0  0.5626800E-005  0.5751921E+03  0.7546771E-02  0.9958255E-01
         21   -1    0    0  502  501  0.00000000000E+00  0.00000000000E+00  0.56311803823E+03  0.56311803823E+03  0.00000000000E+00 0. -1.
         21   -1    0    0  501  502 -0.00000000000E+00 -0.00000000000E+00 -0.58752508192E+03  0.58752508192E+03  0.00000000000E+00 0. -1.
         25    1    1    2    0    0 -0.21013563811E+03 -0.13924826488E+03 -0.85712740786E+02  0.29414067996E+03  0.12500000000E+03 0.  0.
         25    1    1    2    0    0 -0.25372101681E+03 -0.11980085981E+03  0.45138997800E+02  0.31046598768E+03  0.12500000000E+03 0.  0.
         25    1    1    2    0    0  0.46385665492E+03  0.25904912469E+03  0.16166699294E+02  0.54603645252E+03  0.12500000000E+03 0.  0.
</event>
<event>
 5    0  0.5626800E-005  0.2251354E+03  0.7546771E-02  0.1130111E+00
         21   -1    0    0  502  501  0.00000000000E+00  0.00000000000E+00  0.24887140431E+03  0.24887140431E+03  0.00000000000E+00 0.  1.
         21   -1    0    0  501  502 -0.00000000000E+00 -0.00000000000E+00 -0.20366327302E+03  0.20366327302E+03  0.00000000000E+00 0.  1.
         25    1    1    2    0    0 -0.95419000363E+02 -0.72045496025E+01 -0.53789109575E+02  0.16635792579E+03  0.12500000000E+03 0.  0.
         25    1    1    2    0    0  0.54979404384E+02  0.10823752751E+02  0.54322116121E+02  0.14736275252E+03  0.12500000000E+03 0.  0.
         25    1    1    2    0    0  0.40439595979E+02 -0.36192031488E+01  0.44675124744E+02  0.13881399902E+03  0.12500000000E+03 0.  0.
</event>
<event>
 5    0  0.5626800E-005  0.3439668E+03  0.7546771E-02  0.1065119E+00
         21   -1    0    0  502  501  0.00000000000E+00  0.00000000000E+00  0.10419552830E+03  0.10419552830E+03  0.00000000000E+00 0. -1.
         21   -1    0    0  501  502 -0.00000000000E+00 -0.00000000000E+00 -0.11354914845E+04  0.11354914845E+04  0.00000000000E+00 0. -1.
         25    1    1    2    0    0 -0.17143858519E+01  0.16141439066E+02 -0.21796028135E+02  0.12792010013E+03  0.12500000000E+03 0.  0.
         25    1    1    2    0    0 -0.34932315152E+02 -0.12291579101E+02 -0.96543921685E+03  0.97420184304E+03  0.12500000000E+03 0.  0.
         25    1    1    2    0    0  0.36646701004E+02 -0.38498599643E+01 -0.44060711244E+02  0.13756506966E+03  0.12500000000E+03 0.  0.
</event>
<event>
 5    0  0.5626800E-005  0.6052377E+03  0.7546771E-02  0.9894599E-01
         21   -1    0    0  502  501  0.00000000000E+00  0.00000000000E+00  0.14894133393E+04  0.14894133393E+04  0.00000000000E+00 0.  1.
         21   -1    0    0  501  502 -0.00000000000E+00 -0.00000000000E+00 -0.24594424799E+03  0.24594424799E+03  0.00000000000E+00 0.  1.
         25    1    1    2    0    0  0.10281009389E+03  0.50074246394E+02  0.17662711263E+03  0.24474370773E+03  0.12500000000E+03 0.  0.
         25    1    1    2    0    0 -0.52594214169E+03  0.88095387193E+02  0.75574364842E+03  0.93335384275E+03  0.12500000000E+03 0.  0.
         25    1    1    2    0    0  0.42313204780E+03 -0.13816963359E+03  0.31109833023E+03  0.55726003678E+03  0.12500000000E+03 0.  0.
</event>
<event>
 5    0  0.5626800E-005  0.2487150E+03  0.7546771E-02  0.1114120E+00
         21   -1    0    0  502  501  0.00000000000E+00  0.00000000000E+00  0.14845362213E+03  0.14845362213E+03  0.00000000000E+00 0.  1.
         21   -1    0    0  501  502 -0.00000000000E+00 -0.00000000000E+00 -0.41669003745E+03  0.41669003745E+03  0.00000000000E+00 0.  1.
         25    1    1    2    0    0  0.63146088616E+02  0.24318403917E+02  0.43095301447E+02  0.14852951991E+03  0.12500000000E+03 0.  0.
         25    1    1    2    0    0 -0.51437950602E+02  0.17314107672E+02 -0.20845459049E+03  0.24904609490E+03  0.12500000000E+03 0.  0.
         25    1    1    2    0    0 -0.11708138014E+02 -0.41632511589E+02 -0.10287712628E+03  0.16756804477E+03  0.12500000000E+03 0.  0.
</event>
<event>
 5    0  0.5626800E-005  0.2553236E+03  0.7546771E-02  0.1109986E+00
         21   -1    0    0  502  501  0.00000000000E+00  0.00000000000E+00  0.20981338178E+03  0.20981338178E+03  0.00000000000E+00 0. -1.
         21   -1    0    0  501  502 -0.00000000000E+00 -0.00000000000E+00 -0.31070545140E+03  0.31070545140E+03  0.00000000000E+00 0. -1.
         25    1    1    2    0    0 -0.38175707574E+02 -0.89227179401E+02 -0.97897293258E+02  0.18608534123E+03  0.12500000000E+03 0.  0.
         25    1    1    2    0    0 -0.22018584585E+02  0.74671990581E+02 -0.87538218062E+02  0.17131451738E+03  0.12500000000E+03 0.  0.
         25    1    1    2    0    0  0.60194292159E+02  0.14555188820E+02  0.84543441696E+02  0.16311897457E+03  0.12500000000E+03 0.  0.
</event>
<event>
 5    0  0.5626800E-005  0.2243858E+03  0.7546771E-02  0.1130655E+00
         21   -1    0    0  502  501  0.00000000000E+00  0.00000000000E+00  0.17365315484E+03  0.17365315484E+03  0.00000000000E+00 0. -1.
         21   -1    0    0  501  502 -0.00000000000E+00 -0.00000000000E+00 -0.28994007978E+03  0.28994007978E+03  0.00000000000E+00 0. -1.
         25    1    1    2    0    0  0.30229935271E+02  0.31466355877E+02 -0.11535254620E+03  0.17559951723E+03  0.12500000000E+03 0.  0.
         25    1    1    2    0    0 -0.64062957423E+02 -0.20223394808E+02 -0.47914542147E+02  0.14977934290E+03  0.12500000000E+03 0.  0.
         25    1    1    2    0    0  0.33833022152E+02 -0.11242961069E+02  0.46980163402E+02  0.13821437449E+03  0.12500000000E+03 0.  0.
</event>
<event>
 5    0  0.5626800E-005  0.3172367E+03  0.7546771E-02  0.1076928E+00
         21   -1    0    0  502  501  0.00000000000E+00  0.00000000000E+00  0.39973246091E+03  0.39973246091E+03  0.00000000000E+00 0.  1.
         21   -1    0    0  501  502 -0.00000000000E+00 -0.00000000000E+00 -0.25176626349E+03  0.25176626349E+03  0.00000000000E+00 0.  1.
         25    1    1    2    0    0  0.83764383407E+02 -0.17517839729E+02 -0.22355694851E+02  0.15312780195E+03  0.12500000000E+03 0.  0.
         25    1    1    2    0    0  0.12310337032E+03  0.56203434873E+02 -0.24076973252E+02  0.18579011416E+03  0.12500000000E+03 0.  0.
         25    1    1    2    0    0 -0.20686775373E+03 -0.38685595144E+02  0.19439886552E+03  0.31258080831E+03  0.12500000000E+03 0.  0.
</event>
<event>
 5    0  0.5626800E-005  0.2520633E+03  0.7546771E-02  0.1112008E+00
         21   -1    0    0  502  501  0.00000000000E+00  0.00000000000E+00  0.23809723302E+03  0.23809723302E+03  0.00000000000E+00 0.  1.
         21   -1    0    0  501  502 -0.00000000000E+00 -0.00000000000E+00 -0.26684847915E+03  0.26684847915E+03  0.00000000000E+00 0.  1.
         25    1    1    2    0    0  0.40849081321E+02 -0.12060453418E+03 -0.14249135584E+02  0.17900318146E+03  0.12500000000E+03 0.  0.
         25    1    1    2    0    0 -0.14360287653E+02 -0.12282058630E+02  0.41855494420E+02  0.13316887489E+03  0.12500000000E+03 0.  0.
         25    1    1    2    0    0 -0.26488793668E+02  0.13288659281E+03 -0.56357604967E+02  0.19277365581E+03  0.12500000000E+03 0.  0.
</event>
<event>
 5    0  0.5626800E-005  0.4213847E+03  0.7546771E-02  0.1036617E+00
         21   -1    0    0  502  501  0.00000000000E+00  0.00000000000E+00  0.10050318640E+04  0.10050318640E+04  0.00000000000E+00 0. -1.
         21   -1    0    0  501  502 -0.00000000000E+00 -0.00000000000E+00 -0.17667608381E+03  0.17667608381E+03  0.00000000000E+00 0. -1.
         25    1    1    2    0    0 -0.27023390279E+03 -0.19027865861E+03  0.19309709193E+03  0.40267085448E+03  0.12500000000E+03 0.  0.
         25    1    1    2    0    0  0.83248888895E+02  0.16673690602E+03  0.30024452510E+03  0.37483776248E+03  0.12500000000E+03 0.  0.
         25    1    1    2    0    0  0.18698501389E+03  0.23541752589E+02  0.33501416313E+03  0.40419933082E+03  0.12500000000E+03 0.  0.
</event>
<event>
 5    0  0.5626800E-005  0.5751499E+03  0.7546771E-02  0.9958347E-01
         21   -1    0    0  502  501  0.00000000000E+00  0.00000000000E+00  0.34121955243E+03  0.34121955243E+03  0.00000000000E+00 0. -1.
         21   -1    0    0  501  502 -0.00000000000E+00 -0.00000000000E+00 -0.96945635124E+03  0.96945635124E+03  0.00000000000E+00 0. -1.
         25    1    1    2    0    0  0.25889315436E+03 -0.10079942112E+03 -0.58663148917E+03  0.66102019088E+03  0.12500000000E+03 0.  0.
         25    1    1    2    0    0 -0.70339931636E+02  0.12156671713E+03 -0.26902020450E+03  0.32821188754E+03  0.12500000000E+03 0.  0.
         25    1    1    2    0    0 -0.18855322273E+03 -0.20767296018E+02  0.22741489486E+03  0.32144382524E+03  0.12500000000E+03 0.  0.
</event>
<event>
 5    0  0.5626800E-005  0.3371587E+03  0.7546771E-02  0.1068013E+00
         21   -1    0    0  502  501  0.00000000000E+00  0.00000000000E+00  0.22258285626E+03  0.22258285626E+03  0.00000000000E+00 0. -1.
         21   -1    0    0  501  502 -0.00000000000E+00 -0.00000000000E+00 -0.51071303210E+03  0.51071303210E+03  0.00000000000E+00 0.  1.
         25    1    1    2    0    0 -0.82337943601E+01 -0.55019604740E+01 -0.10957751904E+02  0.12586953271E+03  0.12500000000E+03 0.  0.
         25    1    1    2    0    0 -0.21905063468E+03  0.87860352833E+02 -0.15816430345E+03  0.31039260468E+03  0.12500000000E+03 0.  0.
         25    1    1    2    0    0  0.22728442904E+03 -0.82358392359E+02 -0.11900812048E+03  0.29703375097E+03  0.12500000000E+03 0.  0.
</event>
<event>
 5    0  0.6159528E-005  0.4298076E+03  0.7546771E-02  0.1033921E+00
         21   -1    0    0  502  501  0.00000000000E+00  0.00000000000E+00  0.53414060978E+03  0.53414060978E+03  0.00000000000E+00 0. -1.
         21   -1    0    0  501  502 -0.00000000000E+00 -0.00000000000E+00 -0.34585382743E+03  0.34585382743E+03  0.00000000000E+00 0. -1.
         25    1    1    2    0    0 -0.12404311284E+03 -0.69852045160E+02  0.25464809213E+03  0.31739037932E+03  0.12500000000E+03 0.  0.
         25    1    1    2    0    0  0.53530505332E+02  0.27195609421E+03  0.68736891961E+01  0.30413464088E+03  0.12500000000E+03 0.  0.
         25    1    1    2    0    0  0.70512607509E+02 -0.20210404905E+03 -0.73234998972E+02  0.25846941702E+03  0.12500000000E+03 0.  0.
</event>
<event>
 5    0  0.5626800E-005  0.2515856E+03  0.7546771E-02  0.1112307E+00
         21   -1    0    0  502  501  0.00000000000E+00  0.00000000000E+00  0.76168609437E+03  0.76168609437E+03  0.00000000000E+00 0.  1.
         21   -1    0    0  501  502 -0.00000000000E+00 -0.00000000000E+00 -0.83098977705E+02  0.83098977705E+02  0.00000000000E+00 0.  1.
         25    1    1    2    0    0  0.37585337841E+02  0.62111127768E+02  0.33668332262E+03  0.36640293332E+03  0.12500000000E+03 0.  0.
         25    1    1    2    0    0  0.63413937617E+02 -0.94735910244E+02  0.19568851530E+03  0.25867975412E+03  0.12500000000E+03 0.  0.
         25    1    1    2    0    0 -0.10099927546E+03  0.32624782476E+02  0.14621527874E+03  0.21970238463E+03  0.12500000000E+03 0.  0.
</event>
<event>
 5    0  0.5855608E-005  0.2958252E+03  0.7546771E-02  0.1087346E+00
         21   -1    0    0  502  501  0.00000000000E+00  0.00000000000E+00  0.11653218582E+04  0.11653218582E+04  0.00000000000E+00 0.  1.
         21   -1    0    0  501  502 -0.00000000000E+00 -0.00000000000E+00 -0.75097312356E+02  0.75097312356E+02  0.00000000000E+00 0.  1.
         25    1    1    2    0    0  0.10965447746E+03 -0.54481567698E+02  0.34805584742E+03  0.38956413922E+03  0.12500000000E+03 0.  0.
         25    1    1    2    0    0 -0.80831632118E+02  0.14817363312E+03  0.21621107238E+03  0.30143225793E+03  0.12500000000E+03 0.  0.
         25    1    1    2    0    0 -0.28822845342E+02 -0.93692065419E+02  0.52595762600E+03  0.54942277336E+03  0.12500000000E+03 0.  0.
</event>
<event>
 5    0  0.5626800E-005  0.2637278E+03  0.7546771E-02  0.1104924E+00
         21   -1    0    0  502  501  0.00000000000E+00  0.00000000000E+00  0.14881010938E+04  0.14881010938E+04  0.00000000000E+00 0. -1.
         21   -1    0    0  501  502 -0.00000000000E+00 -0.00000000000E+00 -0.46738992423E+02  0.46738992423E+02  0.00000000000E+00 0. -1.
         25    1    1    2    0    0  0.79551353945E+02 -0.36350758996E+02  0.27181448710E+03  0.31170163778E+03  0.12500000000E+03 0.  0.
         25    1    1    2    0    0  0.73770117268E+02  0.48399479113E+02  0.63092213178E+03  0.64920896185E+03  0.12500000000E+03 0.  0.
         25    1    1    2    0    0 -0.15332147121E+03 -0.12048720117E+02  0.53862548252E+03  0.57392948662E+03  0.12500000000E+03 0.  0.
</event>
<event>
 5    0  0.6069167E-005  0.3085476E+03  0.7546771E-02  0.1081044E+00
         21   -1    0    0  502  501  0.00000000000E+00  0.00000000000E+00  0.25780386558E+03  0.25780386558E+03  0.00000000000E+00 0.  1.
         21   -1    0    0  501  502 -0.00000000000E+00 -0.00000000000E+00 -0.36927926528E+03  0.36927926528E+03  0.00000000000E+00 0.  1.
         25    1    1    2    0    0 -0.10451833529E+03  0.36502783297E+02  0.90970456608E+02  0.19015036044E+03  0.12500000000E+03 0.  0.
         25    1    1    2    0    0  0.72088722387E+02 -0.14337345899E+03 -0.17238245157E+03  0.26663353549E+03  0.12500000000E+03 0.  0.
         25    1    1    2    0    0  0.32429612900E+02  0.10687067569E+03 -0.30063404730E+02  0.17029923493E+03  0.12500000000E+03 0.  0.
</event>
<event>
 5    0  0.5626800E-005  0.2588407E+03  0.7546771E-02  0.1107842E+00
         21   -1    0    0  502  501  0.00000000000E+00  0.00000000000E+00  0.65192586233E+03  0.65192586233E+03  0.00000000000E+00 0.  1.
         21   -1    0    0  501  502 -0.00000000000E+00 -0.00000000000E+00 -0.10277009472E+03  0.10277009472E+03  0.00000000000E+00 0.  1.
         25    1    1    2    0    0  0.45530970290E+02 -0.10188541459E+03  0.24935845325E+03  0.30043026673E+03  0.12500000000E+03 0.  0.
         25    1    1    2    0    0 -0.20043948768E+02  0.10302753616E+03  0.44996526683E+02  0.16931072176E+03  0.12500000000E+03 0.  0.
         25    1    1    2    0    0 -0.25487021522E+02 -0.11421215708E+01  0.25480078767E+03  0.28495496856E+03  0.12500000000E+03 0.  0.
</event>
<event>
 5    0  0.5626800E-005  0.3370887E+03  0.7546771E-02  0.1068043E+00
         21   -1    0    0  502  501  0.00000000000E+00  0.00000000000E+00  0.10786861690E+04  0.10786861690E+04  0.00000000000E+00 0.  1.
         21   -1    0    0  501  502 -0.00000000000E+00 -0.00000000000E+00 -0.10533997238E+03  0.10533997238E+03  0.00000000000E+00 0.  1.
         25    1    1    2    0    0  0.12393759213E+03 -0.57111058999E+02  0.22094767318E+03  0.28821012141E+03  0.12500000000E+03 0.  0.
         25    1    1    2    0    0 -0.24132392220E+03  0.12363179194E+03  0.51775465298E+03  0.59767628034E+03  0.12500000000E+03 0.  0.
         25    1    1    2    0    0  0.11738633007E+03 -0.66520732946E+02  0.23464387051E+03  0.29813973966E+03  0.12500000000E+03 0.  0.
</event>
<event>
 5    0  0.6296288E-005  0.2813993E+03  0.7546771E-02  0.1094927E+00
         21   -1    0    0  502  501  0.00000000000E+00  0.00000000000E+00  0.52650614002E+03  0.52650614002E+03  0.00000000000E+00 0.  1.
         21   -1    0    0  501  502 -0.00000000000E+00 -0.00000000000E+00 -0.15039820291E+03  0.15039820291E+03  0.00000000000E+00 0.  1.
         25    1    1    2    0    0  0.41853972168E+02  0.84843077134E+02  0.97482637040E+02  0.18460218647E+03  0.12500000000E+03 0.  0.
         25    1    1    2    0    0 -0.10424611969E+02  0.10557002791E+03  0.17592207207E+03  0.24047303127E+03  0.12500000000E+03 0.  0.
         25    1    1    2    0    0 -0.31429360199E+02 -0.19041310505E+03  0.10270322800E+03  0.25182912520E+03  0.12500000000E+03 0.  0.
</event>
<event>
 5    0  0.5987039E-005  0.3433130E+03  0.7546771E-02  0.1065394E+00
         21   -1    0    0  502  501  0.00000000000E+00  0.00000000000E+00  0.53733040406E+03  0.53733040406E+03  0.00000000000E+00 0.  1.
         21   -1    0    0  501  502 -0.00000000000E+00 -0.00000000000E+00 -0.21935075332E+03  0.21935075332E+03  0.00000000000E+00 0.  1.
         25    1    1    2    0    0  0.11884456198E+02  0.15680463849E+03  0.98416274896E+02  0.22369554782E+03  0.12500000000E+03 0.  0.
         25    1    1    2    0    0 -0.38984816023E+02  0.24507091402E+01 -0.92275808368E+02  0.16020501448E+03  0.12500000000E+03 0.  0.
         25    1    1    2    0    0  0.27100359825E+02 -0.15925534763E+03  0.31183918422E+03  0.37278059507E+03  0.12500000000E+03 0.  0.
</event>
<event>
 5    0  0.5626800E-005  0.3993805E+03  0.7546771E-02  0.1043994E+00
         21   -1    0    0  502  501  0.00000000000E+00  0.00000000000E+00  0.63043692994E+02  0.63043692994E+02  0.00000000000E+00 0. -1.
         21   -1    0    0  501  502 -0.00000000000E+00 -0.00000000000E+00 -0.25300672608E+04  0.25300672608E+04  0.00000000000E+00 0. -1.
         25    1    1    2    0    0  0.24688383251E+02  0.89745019693E+02 -0.23457673563E+03  0.28162906406E+03  0.12500000000E+03 0.  0.
         25    1    1    2    0    0 -0.25509937668E+02  0.70568210670E+02 -0.19889249231E+04  0.19942612615E+04  0.12500000000E+03 0.  0.
         25    1    1    2    0    0  0.82155441674E+00 -0.16031323036E+03 -0.24352190900E+03  0.31722062818E+03  0.12500000000E+03 0.  0.
</event>
<event>
 5    0  0.5626800E-005  0.2558870E+03  0.7546771E-02  0.1109640E+00
         21   -1    0    0  502  501  0.00000000000E+00  0.00000000000E+00  0.10410479435E+04  0.10410479435E+04  0.00000000000E+00 0. -1.
         21   -1    0    0  501  502 -0.00000000000E+00 -0.00000000000E+00 -0.62896375548E+02  0.62896375548E+02  0.00000000000E+00 0. -1.
         25    1    1    2    0    0  0.76897289059E+02 -0.10309900210E+03  0.53388691170E+03  0.56320762760E+03  0.12500000000E+03 0.  0.
         25    1    1    2    0    0 -0.18588307087E+02  0.78860269483E+02  0.32217593168E+03  0.35494619059E+03  0.12500000000E+03 0.  0.
         25    1    1    2    0    0 -0.58308981972E+02  0.24238732613E+02  0.12208872454E+03  0.18579050083E+03  0.12500000000E+03 0.  0.
</event>
<event>
 5    0  0.5626800E-005  0.2220580E+03  0.7546771E-02  0.1132358E+00
         21   -1    0    0  502  501  0.00000000000E+00  0.00000000000E+00  0.52356535332E+02  0.52356535332E+02  0.00000000000E+00 0.  1.
         21   -1    0    0  501  502 -0.00000000000E+00 -0.00000000000E+00 -0.94180732484E+03  0.94180732484E+03  0.00000000000E+00 0.  1.
         25    1    1    2    0    0 -0.46698248909E+02  0.33882605459E+02 -0.19175831619E+03  0.23606145224E+03  0.12500000000E+03 0.  0.
         25    1    1    2    0    0 -0.10220154173E+02 -0.69736405649E+01 -0.50221743077E+03  0.51768758048E+03  0.12500000000E+03 0.  0.
         25    1    1    2    0    0  0.56918403082E+02 -0.26908964894E+02 -0.19547504255E+03  0.24041482745E+03  0.12500000000E+03 0.  0.
</event>
<event>
 5    0  0.5626800E-005  0.2870554E+03  0.7546771E-02  0.1091897E+00
         21   -1    0    0  502  501  0.00000000000E+00  0.00000000000E+00  0.59873076677E+02  0.59873076677E+02  0.00000000000E+00 0. -1.
         21   -1    0    0  501  502 -0.00000000000E+00 -0.00000000000E+00 -0.13762579845E+04  0.13762579845E+04  0.00000000000E+00 0. -1.
         25    1    1    2    0    0 -0.70350282621E+02  0.12234863265E+03 -0.52965959412E+03  0.56221226936E+03  0.12500000000E+03 0.  0.
         25    1    1    2    0    0  0.12461094654E+03  0.72783874783E+01 -0.50657485313E+03  0.53649225973E+03  0.12500000000E+03 0.  0.
         25    1    1    2    0    0 -0.54260663923E+02 -0.12962702013E+03 -0.28015046055E+03  0.33742653207E+03  0.12500000000E+03 0.  0.
</event>
<event>
 5    0  0.5626800E-005  0.2553201E+03  0.7546771E-02  0.1109988E+00
         21   -1    0    0  502  501  0.00000000000E+00  0.00000000000E+00  0.30865269354E+03  0.30865269354E+03  0.00000000000E+00 0.  1.
         21   -1    0    0  501  502 -0.00000000000E+00 -0.00000000000E+00 -0.21120298725E+03  0.21120298725E+03  0.00000000000E+00 0.  1.
         25    1    1    2    0    0  0.34331928639E+02  0.95550832143E+02 -0.52334645363E+02  0.16932973145E+03  0.12500000000E+03 0.  0.
         25    1    1    2    0    0  0.66283971576E+02 -0.45116198061E+02  0.76498835391E+02  0.16705121380E+03  0.12500000000E+03 0.  0.
         25    1    1    2    0    0 -0.10061590021E+03 -0.50434634082E+02  0.73285516260E+02  0.18347473555E+03  0.12500000000E+03 0.  0.
</event>
<event>
 5    0  0.5626800E-005  0.5892963E+03  0.7546771E-02  0.9927865E-01
         21   -1    0    0  502  501  0.00000000000E+00  0.00000000000E+00  0.16034301385E+03  0.16034301385E+03  0.00000000000E+00 0.  1.
         21   -1    0    0  501  502 -0.00000000000E+00 -0.00000000000E+00 -0.21657954901E+04  0.21657954901E+04  0.00000000000E+00 0.  1.
         25    1    1    2    0    0  0.21748083325E+02  0.44977293304E+03 -0.37391606835E+03  0.59850388186E+03  0.12500000000E+03 0.  0.
         25    1    1    2    0    0 -0.33096559005E+02 -0.35145042648E+03 -0.13792911059E+04  0.14292241739E+04  0.12500000000E+03 0.  0.
         25    1    1    2    0    0  0.11348475680E+02 -0.98322506566E+02 -0.25224530200E+03  0.29841044817E+03  0.12500000000E+03 0.  0.
</event>
<event>
 5    0  0.5626800E-005  0.3377807E+03  0.7546771E-02  0.1067745E+00
         21   -1    0    0  502  501  0.00000000000E+00  0.00000000000E+00  0.12278570323E+03  0.12278570323E+03  0.00000000000E+00 0. -1.
         21   -1    0    0  501  502 -0.00000000000E+00 -0.00000000000E+00 -0.92922696018E+03  0.92922696018E+03  0.00000000000E+00 0. -1.
         25    1    1    2    0    0 -0.16101632533E+02 -0.44668196135E+01 -0.11340625494E+02  0.12662079148E+03  0.12500000000E+03 0.  0.
         25    1    1    2    0    0  0.67452738649E+02  0.70514266985E+02 -0.51500489214E+02  0.16673162324E+03  0.12500000000E+03 0.  0.
         25    1    1    2    0    0 -0.51351106116E+02 -0.66047447372E+02 -0.74360014224E+03  0.75866024869E+03  0.12500000000E+03 0.  0.
</event>
<event>
 5    0  0.5626800E-005  0.5092513E+03  0.7546771E-02  0.1011392E+00
         21   -1    0    0  502  501  0.00000000000E+00  0.00000000000E+00  0.28526094935E+03  0.28526094935E+03  0.00000000000E+00 0. -1.
         21   -1    0    0  501  502 -0.00000000000E+00 -0.00000000000E+00 -0.90912173027E+03  0.90912173027E+03  0.00000000000E+00 0. -1.
         25    1    1    2    0    0  0.62158524167E+02 -0.15365487872E+03 -0.35830075333E+03  0.41409894195E+03  0.12500000000E+03 0.  0.
         25    1    1    2    0    0 -0.53497076668E+02 -0.15976832120E+03 -0.37138360715E+03  0.42654265593E+03  0.12500000000E+03 0.  0.
         25    1    1    2    0    0 -0.86614474986E+01  0.31342319992E+03  0.10582357956E+03  0.35374108174E+03  0.12500000000E+03 0.  0.
</event>
<event>
 5    0  0.5843465E-005  0.2649641E+03  0.7546771E-02  0.1104197E+00
         21   -1    0    0  502  501  0.00000000000E+00  0.00000000000E+00  0.10689346901E+03  0.10689346901E+03  0.00000000000E+00 0. -1.
         21   -1    0    0  501  502 -0.00000000000E+00 -0.00000000000E+00 -0.65678470030E+03  0.65678470030E+03  0.00000000000E+00 0. -1.
         25    1    1    2    0    0 -0.63051532790E+02  0.40191860208E+02 -0.41427606241E+02  0.15143357611E+03  0.12500000000E+03 0.  0.
         25    1    1    2    0    0  0.11863238107E+02 -0.87943425016E+02 -0.41182543661E+03  0.43943141974E+03  0.12500000000E+03 0.  0.
         25    1    1    2    0    0  0.51188294682E+02  0.47751564808E+02 -0.96638188449E+02  0.17281317346E+03  0.12500000000E+03 0.  0.
</event>
<event>
 5    0  0.5626800E-005  0.4043656E+03  0.7546771E-02  0.1042278E+00
         21   -1    0    0  502  501  0.00000000000E+00  0.00000000000E+00  0.58722258152E+03  0.58722258152E+03  0.00000000000E+00 0.  1.
         21   -1    0    0  501  502 -0.00000000000E+00 -0.00000000000E+00 -0.27844895939E+03  0.27844895939E+03  0.00000000000E+00 0.  1.
         25    1    1    2    0    0  0.92323067332E+02 -0.89496504867E+02  0.35744241104E+03  0.39990405144E+03  0.12500000000E+03 0.  0.
         25    1    1    2    0    0 -0.88912500474E+02  0.94390240184E+02 -0.20016473149E+03  0.26926914030E+03  0.12500000000E+03 0.  0.
         25    1    1    2    0    0 -0.34105668580E+01 -0.48937353170E+01  0.15149594258E+03  0.19649834918E+03  0.12500000000E+03 0.  0.
</event>
<event>
 5    0  0.5626800E-005  0.2770052E+03  0.7546771E-02  0.1097336E+00
         21   -1    0    0  502  501  0.00000000000E+00  0.00000000000E+00  0.23209058345E+04  0.23209058345E+04  0.00000000000E+00 0.  1.
         21   -1    0    0  501  502 -0.00000000000E+00 -0.00000000000E+00 -0.33061175767E+02  0.33061175767E+02  0.00000000000E+00 0.  1.
         25    1    1    2    0    0 -0.16148458883E+03 -0.69394684471E+02  0.75436194440E+03  0.78458896106E+03  0.12500000000E+03 0.  0.
         25    1    1    2    0    0  0.28055612483E+02  0.69401788023E+02  0.54564927974E+03  0.56476708655E+03  0.12500000000E+03 0.  0.
         25    1    1    2    0    0  0.13342897635E+03 -0.71035514245E-02  0.98783343456E+03  0.10046109626E+04  0.12500000000E+03 0.  0.
</event>
<event>
 5    0  0.5626800E-005  0.2375921E+03  0.7546771E-02  0.1121407E+00
         21   -1    0    0  502  501  0.00000000000E+00  0.00000000000E+00  0.43401694079E+02  0.43401694079E+02  0.00000000000E+00 0. -1.
         21   -1    0    0  501  502 -0.00000000000E+00 -0.00000000000E+00 -0.13006407054E+04  0.13006407054E+04  0.00000000000E+00 0. -1.
         25    1    1    2    0    0  0.31133226709E+02  0.56889486683E+02 -0.49701509635E+03  0.51657980748E+03  0.12500000000E+03 0.  0.
         25    1    1    2    0    0 -0.42809448474E+02  0.11182345085E+02 -0.14760729639E+03  0.19842028038E+03  0.12500000000E+03 0.  0.
         25    1    1    2    0    0  0.11676221765E+02 -0.68071831768E+02 -0.61261661858E+03  0.62904231161E+03  0.12500000000E+03 0.  0.
</event>
<event>
 5    0  0.5626800E-005  0.4269393E+03  0.7546771E-02  0.1034831E+00
         21   -1    0    0  502  501  0.00000000000E+00  0.00000000000E+00  0.23429599692E+03  0.23429599692E+03  0.00000000000E+00 0.  1.
         21   -1    0    0  501  502 -0.00000000000E+00 -0.00000000000E+00 -0.77797826165E+03  0.77797826165E+03  0.00000000000E+00 0.  1.
         25    1    1    2    0    0  0.30506933480E+02  0.65145940608E+01 -0.45413070044E+03  0.47205169845E+03  0.12500000000E+03 0.  0.
         25    1    1    2    0    0 -0.18875929346E+03  0.60266768358E+02 -0.19337143486E+03  0.30377568378E+03  0.12500000000E+03 0.  0.
         25    1    1    2    0    0  0.15825235998E+03 -0.66781362419E+02  0.10381987058E+03  0.23644687634E+03  0.12500000000E+03 0.  0.
</event>
<event>
 5    0  0.5626800E-005  0.3218337E+03  0.7546771E-02  0.1074808E+00
         21   -1    0    0  502  501  0.00000000000E+00  0.00000000000E+00  0.82543350616E+02  0.82543350616E+02  0.00000000000E+00 0.  1.
         21   -1    0    0  501  502 -0.00000000000E+00 -0.00000000000E+00 -0.12548185410E+04  0.12548185410E+04  0.00000000000E+00 0.  1.
         25    1    1    2    0    0 -0.42470926207E+02 -0.55966493141E+02 -0.55930990675E+03  0.57739812929E+03  0.12500000000E+03 0.  0.
         25    1    1    2    0    0  0.17366746349E+03  0.11970704556E+03 -0.42823371044E+03  0.49345645744E+03  0.12500000000E+03 0.  0.
         25    1    1    2    0    0 -0.13119653728E+03 -0.63740552421E+02 -0.18473157318E+03  0.26650730487E+03  0.12500000000E+03 0.  0.
</event>
<event>
 5    0  0.5626800E-005  0.2382507E+03  0.7546771E-02  0.1120964E+00
         21   -1    0    0  502  501  0.00000000000E+00  0.00000000000E+00  0.30745478504E+03  0.30745478504E+03  0.00000000000E+00 0. -1.
         21   -1    0    0  501  502 -0.00000000000E+00 -0.00000000000E+00 -0.18462360588E+03  0.18462360588E+03  0.00000000000E+00 0. -1.
         25    1    1    2    0    0  0.58942954597E+02  0.24495142885E+02  0.94408158988E+02  0.16915136537E+03  0.12500000000E+03 0.  0.
         25    1    1    2    0    0  0.40781196510E+02  0.79118050698E+01 -0.51269221562E+02  0.14134792438E+03  0.12500000000E+03 0.  0.
         25    1    1    2    0    0 -0.99724151107E+02 -0.32406947954E+02  0.79692241732E+02  0.18157910117E+03  0.12500000000E+03 0.  0.
</event>
<event>
 5    0  0.5626800E-005  0.3276108E+03  0.7546771E-02  0.1072199E+00
         21   -1    0    0  502  501  0.00000000000E+00  0.00000000000E+00  0.27006614375E+03  0.27006614375E+03  0.00000000000E+00 0. -1.
         21   -1    0    0  501  502 -0.00000000000E+00 -0.00000000000E+00 -0.39741677093E+03  0.39741677093E+03  0.00000000000E+00 0. -1.
         25    1    1    2    0    0  0.60187907611E+02  0.19778042802E+03 -0.19998528837E+03  0.31362206156E+03  0.12500000000E+03 0.  0.
         25    1    1    2    0    0 -0.50669073998E+02 -0.37197678166E+02  0.51311648570E+02  0.14902653321E+03  0.12500000000E+03 0.  0.
         25    1    1    2    0    0 -0.95188336133E+01 -0.16058274986E+03  0.21323012618E+02  0.20483431991E+03  0.12500000000E+03 0.  0.
</event>
<event>
 5    0  0.5626800E-005  0.3590541E+03  0.7546771E-02  0.1058959E+00
         21   -1    0    0  502  501  0.00000000000E+00  0.00000000000E+00  0.31511743033E+04  0.31511743033E+04  0.00000000000E+00 0.  1.
         21   -1    0    0  501  502 -0.00000000000E+00 -0.00000000000E+00 -0.40911681730E+02  0.40911681730E+02  0.00000000000E+00 0.  1.
         25    1    1    2    0    0 -0.90073921259E+02  0.24534867923E+02  0.24960408812E+03  0.29435093315E+03  0.12500000000E+03 0.  0.
         25    1    1    2    0    0  0.16794200547E+03  0.61868258024E+02  0.77678290814E+03  0.80687600344E+03  0.12500000000E+03 0.  0.
         25    1    1    2    0    0 -0.77868084212E+02 -0.86403125947E+02  0.20838756253E+04  0.20908590485E+04  0.12500000000E+03 0.  0.
</event>
<event>
 5    0  0.5626800E-005  0.3576711E+03  0.7546771E-02  0.1059510E+00
         21   -1    0    0  502  501  0.00000000000E+00  0.00000000000E+00  0.32655297329E+03  0.32655297329E+03  0.00000000000E+00 0.  1.
         21   -1    0    0  501  502 -0.00000000000E+00 -0.00000000000E+00 -0.39175459472E+03  0.39175459472E+03  0.00000000000E+00 0.  1.
         25    1    1    2    0    0  0.85545298512E+02  0.49183107414E+02 -0.13864390747E+03  0.21114949498E+03  0.12500000000E+03 0.  0.
         25    1    1    2    0    0 -0.22279153516E+03  0.88496516159E+02  0.30368187216E+02  0.27205684757E+03  0.12500000000E+03 0.  0.
         25    1    1    2    0    0  0.13724623665E+03 -0.13767962357E+03  0.43074098822E+02  0.23510122546E+03  0.12500000000E+03 0.  0.
</event>
<event>
 5    0  0.5626800E-005  0.3249338E+03  0.7546771E-02  0.1073401E+00
         21   -1    0    0  502  501  0.00000000000E+00  0.00000000000E+00  0.35337006670E+02  0.35337006670E+02  0.00000000000E+00 0.  1.
         21   -1    0    0  501  502 -0.00000000000E+00 -0.00000000000E+00 -0.29878581632E+04  0.29878581632E+04  0.00000000000E+00 0.  1.
         25    1    1    2    0    0 -0.16815735659E+03 -0.41788266982E+02 -0.89142220479E+03  0.91666880771E+03  0.12500000000E+03 0.  0.
         25    1    1    2    0    0  0.91863345388E+02 -0.11480048698E+03 -0.13526347039E+04  0.13663321954E+04  0.12500000000E+03 0.  0.
         25    1    1    2    0    0  0.76294011202E+02  0.15658875397E+03 -0.70846424784E+03  0.74019416674E+03  0.12500000000E+03 0.  0.
</event>
<event>
 5    0  0.5626800E-005  0.5798857E+03  0.7546771E-02  0.9948038E-01
         21   -1    0    0  502  501  0.00000000000E+00  0.00000000000E+00  0.27477367144E+04  0.27477367144E+04  0.00000000000E+00 0. -1.
         21   -1    0    0  501  502 -0.00000000000E+00 -0.00000000000E+00 -0.12237978619E+03  0.12237978619E+03  0.00000000000E+00 0. -1.
         25    1    1    2    0    0 -0.22677151693E+03 -0.15963317078E+03  0.15470252935E+04  0.15766484481E+04  0.12500000000E+03 0.  0.
         25    1    1    2    0    0  0.22066830248E+03 -0.15875273042E+03  0.79444392876E+03  0.84891877413E+03  0.12500000000E+03 0.  0.
         25    1    1    2    0    0  0.61032144497E+01  0.31838590120E+03  0.28388770594E+03  0.44454927836E+03  0.12500000000E+03 0.  0.
</event>
<event>
 5    0  0.5626800E-005  0.2409291E+03  0.7546771E-02  0.1119175E+00
         21   -1    0    0  502  501  0.00000000000E+00  0.00000000000E+00  0.62591506867E+02  0.62591506867E+02  0.00000000000E+00 0.  1.
         21   -1    0    0  501  502 -0.00000000000E+00 -0.00000000000E+00 -0.92739183225E+03  0.92739183225E+03  0.00000000000E+00 0.  1.
         25    1    1    2    0    0  0.77800884096E+02 -0.10878290317E+02 -0.40845873434E+03  0.43432113974E+03  0.12500000000E+03 0.  0.
         25    1    1    2    0    0 -0.10185079870E+03  0.42210076038E+02 -0.15743662871E+03  0.22927400152E+03  0.12500000000E+03 0.  0.
         25    1    1    2    0    0  0.24049914605E+02 -0.31331785722E+02 -0.29890496234E+03  0.32638819785E+03  0.12500000000E+03 0.  0.
</event>
<event>
 5    0  0.5626800E-005  0.3062292E+03  0.7546771E-02  0.1082168E+00
         21   -1    0    0  502  501  0.00000000000E+00  0.00000000000E+00  0.34568379644E+03  0.34568379644E+03  0.00000000000E+00 0.  1.
         21   -1    0    0  501  502 -0.00000000000E+00 -0.00000000000E+00 -0.27127767592E+03  0.27127767592E+03  0.00000000000E+00 0.  1.
         25    1    1    2    0    0  0.61628991872E+02  0.33098132371E+02 -0.91923011773E+02  0.17020123119E+03  0.12500000000E+03 0.  0.
         25    1    1    2    0    0 -0.68841176981E+02 -0.45474873064E+02  0.25297940863E+03  0.29399090618E+03  0.12500000000E+03 0.  0.
         25    1    1    2    0    0  0.72121851088E+01  0.12376740694E+02 -0.86650276327E+02  0.15276933499E+03  0.12500000000E+03 0.  0.
</event>
<event>
 5    0  0.5626800E-005  0.2441902E+03  0.7546771E-02  0.1117033E+00
         21   -1    0    0  502  501  0.00000000000E+00  0.00000000000E+00  0.40150260013E+03  0.40150260013E+03  0.00000000000E+00 0. -1.
         21   -1    0    0  501  502 -0.00000000000E+00 -0.00000000000E+00 -0.14851424667E+03  0.14851424667E+03  0.00000000000E+00 0. -1.
         25    1    1    2    0    0 -0.54506213778E+02  0.40650870019E+02  0.64734460132E+02  0.15632968657E+03  0.12500000000E+03 0.  0.
         25    1    1    2    0    0  0.25807991693E+02 -0.33915390456E+02 -0.34557829761E+02  0.13651208643E+03  0.12500000000E+03 0.  0.
         25    1    1    2    0    0  0.28698222086E+02 -0.67354795627E+01  0.22281172309E+03  0.25717507380E+03  0.12500000000E+03 0.  0.
</event>
<event>
 5    0  0.9184259E-005  0.5429364E+03  0.7546771E-02  0.1003142E+00
         21   -1    0    0  502  501  0.00000000000E+00  0.00000000000E+00  0.58573968397E+03  0.58573968397E+03  0.00000000000E+00 0. -1.
         21   -1    0    0  501  502 -0.00000000000E+00 -0.00000000000E+00 -0.50326099491E+03  0.50326099491E+03  0.00000000000E+00 0. -1.
         25    1    1    2    0    0 -0.31556033315E+02 -0.13753497982E+03  0.32424724722E+03  0.37506390288E+03  0.12500000000E+03 0.  0.
         25    1    1    2    0    0 -0.48458767517E+02 -0.20191166800E+03 -0.24335650088E+03  0.34345881900E+03  0.12500000000E+03 0.  0.
         25    1    1    2    0    0  0.80014800832E+02  0.33944664782E+03  0.15879427210E+01  0.37047795701E+03  0.12500000000E+03 0.  0.
</event>
<event>
 5    0  0.5626800E-005  0.4888507E+03  0.7546771E-02  0.1016731E+00
         21   -1    0    0  502  501  0.00000000000E+00  0.00000000000E+00  0.34326141981E+03  0.34326141981E+03  0.00000000000E+00 0. -1.
         21   -1    0    0  501  502 -0.00000000000E+00 -0.00000000000E+00 -0.69618948593E+03  0.69618948593E+03  0.00000000000E+00 0. -1.
         25    1    1    2    0    0 -0.17006256381E+03 -0.15832510494E+03  0.11204116931E+03  0.28664671302E+03  0.12500000000E+03 0.  0.
         25    1    1    2    0    0  0.24666862927E+02  0.30502826502E+03 -0.36232347164E+03  0.49046304110E+03  0.12500000000E+03 0.  0.
         25    1    1    2    0    0  0.14539570088E+03 -0.14670316008E+03 -0.10264576379E+03  0.26234115162E+03  0.12500000000E+03 0.  0.
</event>
<event>
 5    0  0.5626800E-005  0.4368482E+03  0.7546771E-02  0.1031718E+00
         21   -1    0    0  502  501  0.00000000000E+00  0.00000000000E+00  0.16980316666E+03  0.16980316666E+03  0.00000000000E+00 0.  1.
         21   -1    0    0  501  502 -0.00000000000E+00 -0.00000000000E+00 -0.11238680477E+04  0.11238680477E+04  0.00000000000E+00 0.  1.
         25    1    1    2    0    0  0.65952246977E+02 -0.26322027790E+03 -0.12070696671E+03  0.32222629531E+03  0.12500000000E+03 0.  0.
         25    1    1    2    0    0  0.15573192085E+02  0.27525948945E+03 -0.72783041643E+03  0.78827179698E+03  0.12500000000E+03 0.  0.
         25    1    1    2    0    0 -0.81525439062E+02 -0.12039211549E+02 -0.10552749788E+03  0.18317312204E+03  0.12500000000E+03 0.  0.
</event>
<event>
 5    0  0.6134720E-005  0.2800719E+03  0.7546771E-02  0.1095650E+00
         21   -1    0    0  502  501  0.00000000000E+00  0.00000000000E+00  0.59835086583E+03  0.59835086583E+03  0.00000000000E+00 0. -1.
         21   -1    0    0  501  502 -0.00000000000E+00 -0.00000000000E+00 -0.13109413696E+03  0.13109413696E+03  0.00000000000E+00 0. -1.
         25    1    1    2    0    0 -0.16338620885E+03 -0.19366794603E+02  0.31988234470E+03  0.38081470615E+03  0.12500000000E+03 0.  0.
         25    1    1    2    0    0  0.10079177599E+03 -0.19165614338E+01  0.12910437980E+03  0.20604755810E+03  0.12500000000E+03 0.  0.
         25    1    1    2    0    0  0.62594432864E+02  0.21283356037E+02  0.18270004378E+02  0.14258273854E+03  0.12500000000E+03 0.  0.
</event>
<event>
 5    0  0.5626800E-005  0.3209206E+03  0.7546771E-02  0.1075226E+00
         21   -1    0    0  502  501  0.00000000000E+00  0.00000000000E+00  0.34983953520E+03  0.34983953520E+03  0.00000000000E+00 0.  1.
         21   -1    0    0  501  502 -0.00000000000E+00 -0.00000000000E+00 -0.29439227151E+03  0.29439227151E+03  0.00000000000E+00 0.  1.
         25    1    1    2    0    0 -0.44556612396E+02  0.33243537767E+02 -0.11551133898E+03  0.17904830059E+03  0.12500000000E+03 0.  0.
         25    1    1    2    0    0  0.44631358873E+01 -0.67945703075E+02  0.26445173789E+03  0.30032692157E+03  0.12500000000E+03 0.  0.
         25    1    1    2    0    0  0.40093476508E+02  0.34702165308E+02 -0.93493135219E+02  0.16485658455E+03  0.12500000000E+03 0.  0.
</event>
<event>
 5    0  0.5626800E-005  0.2920018E+03  0.7546771E-02  0.1089309E+00
         21   -1    0    0  502  501  0.00000000000E+00  0.00000000000E+00  0.57574875567E+03  0.57574875567E+03  0.00000000000E+00 0.  1.
         21   -1    0    0  501  502 -0.00000000000E+00 -0.00000000000E+00 -0.14809423603E+03  0.14809423603E+03  0.00000000000E+00 0.  1.
         25    1    1    2    0    0  0.95982855766E+02  0.48932656502E+02  0.30356759512E+03  0.34552192156E+03  0.12500000000E+03 0.  0.
         25    1    1    2    0    0  0.38811548557E+02  0.10948659473E+01 -0.28824818619E+02  0.13402762850E+03  0.12500000000E+03 0.  0.
         25    1    1    2    0    0 -0.13479440432E+03 -0.50027522449E+02  0.15291174314E+03  0.24429344164E+03  0.12500000000E+03 0.  0.
</event>
<event>
 5    0  0.5626800E-005  0.2565530E+03  0.7546771E-02  0.1109232E+00
         21   -1    0    0  502  501  0.00000000000E+00  0.00000000000E+00  0.25204427109E+03  0.25204427109E+03  0.00000000000E+00 0. -1.
         21   -1    0    0  501  502 -0.00000000000E+00 -0.00000000000E+00 -0.26114243893E+03  0.26114243893E+03  0.00000000000E+00 0. -1.
         25    1    1    2    0    0 -0.13912163847E+03 -0.61021740903E+02 -0.33102978108E+02  0.19949759475E+03  0.12500000000E+03 0.  0.
         25    1    1    2    0    0  0.74913201500E+02  0.13192983856E+02  0.64367015093E+02  0.15985667085E+03  0.12500000000E+03 0.  0.
         25    1    1    2    0    0  0.64208436966E+02  0.47828757047E+02 -0.40362204819E+02  0.15383244442E+03  0.12500000000E+03 0.  0.
</event>
<event>
 5    0  0.5842520E-005  0.3331882E+03  0.7546771E-02  0.1069735E+00
         21   -1    0    0  502  501  0.00000000000E+00  0.00000000000E+00  0.27969108395E+03  0.27969108395E+03  0.00000000000E+00 0. -1.
         21   -1    0    0  501  502 -0.00000000000E+00 -0.00000000000E+00 -0.39691787582E+03  0.39691787582E+03  0.00000000000E+00 0. -1.
         25    1    1    2    0    0 -0.18345763490E+02 -0.21897412984E+03 -0.47399752428E+02  0.25721192256E+03  0.12500000000E+03 0.  0.
         25    1    1    2    0    0 -0.11121343239E+03  0.12821565287E+03 -0.20130480932E+02  0.21174965749E+03  0.12500000000E+03 0.  0.
         25    1    1    2    0    0  0.12955919588E+03  0.90758476969E+02 -0.49696558519E+02  0.20764737972E+03  0.12500000000E+03 0.  0.
</event>
<event>
 5    0  0.5626800E-005  0.6536946E+03  0.7546771E-02  0.9799871E-01
         21   -1    0    0  502  501  0.00000000000E+00  0.00000000000E+00  0.21150630881E+03  0.21150630881E+03  0.00000000000E+00 0. -1.
         21   -1    0    0  501  502 -0.00000000000E+00 -0.00000000000E+00 -0.20203494997E+04  0.20203494997E+04  0.00000000000E+00 0. -1.
         25    1    1    2    0    0 -0.53203125975E+02 -0.40125605259E+03 -0.41048426657E+03  0.58988077224E+03  0.12500000000E+03 0.  0.
         25    1    1    2    0    0  0.20257445812E+03  0.34246859315E+03 -0.13753849196E+04  0.14372299139E+04  0.12500000000E+03 0.  0.
         25    1    1    2    0    0 -0.14937133214E+03  0.58787459444E+02 -0.22974004777E+02  0.20474512241E+03  0.12500000000E+03 0.  0.
</event>
<event>
 5    0  0.5626800E-005  0.2117338E+03  0.7546771E-02  0.1140200E+00
         21   -1    0    0  502  501  0.00000000000E+00  0.00000000000E+00  0.10230050918E+03  0.10230050918E+03  0.00000000000E+00 0. -1.
         21   -1    0    0  501  502 -0.00000000000E+00 -0.00000000000E+00 -0.43823060875E+03  0.43823060875E+03  0.00000000000E+00 0. -1.
         25    1    1    2    0    0  0.73338250503E+02  0.57960674800E+01 -0.73730284688E+02  0.16270601791E+03  0.12500000000E+03 0.  0.
         25    1    1    2    0    0 -0.32837070744E+02  0.30539901545E+02 -0.10188361488E+03  0.16738049404E+03  0.12500000000E+03 0.  0.
         25    1    1    2    0    0 -0.40501179759E+02 -0.36335969025E+02 -0.16031620000E+03  0.21044460598E+03  0.12500000000E+03 0.  0.
</event>
<event>
 5    0  0.5626800E-005  0.2590555E+03  0.7546771E-02  0.1107712E+00
         21   -1    0    0  502  501  0.00000000000E+00  0.00000000000E+00  0.50455227365E+03  0.50455227365E+03  0.00000000000E+00 0. -1.
         21   -1    0    0  501  502 -0.00000000000E+00 -0.00000000000E+00 -0.13300847494E+03  0.13300847494E+03  0.00000000000E+00 0. -1.
         25    1    1    2    0    0  0.40308706721E+02  0.71585380462E+02 -0.48198952786E+01  0.14965790966E+03  0.12500000000E+03 0.  0.
         25    1    1    2    0    0 -0.15202320222E+02 -0.25903192683E+02  0.56263060804E+02  0.14033038852E+03  0.12500000000E+03 0.  0.
         25    1    1    2    0    0 -0.25106386499E+02 -0.45682187780E+02  0.32010063318E+03  0.34757245041E+03  0.12500000000E+03 0.  0.
</event>
<event>
 5    0  0.5626800E-005  0.3511705E+03  0.7546771E-02  0.1062136E+00
         21   -1    0    0  502  501  0.00000000000E+00  0.00000000000E+00  0.38115486134E+03  0.38115486134E+03  0.00000000000E+00 0.  1.
         21   -1    0    0  501  502 -0.00000000000E+00 -0.00000000000E+00 -0.32354486747E+03  0.32354486747E+03  0.00000000000E+00 0.  1.
         25    1    1    2    0    0 -0.38484292869E+00 -0.10268816845E+03 -0.47004830766E+02  0.16846204961E+03  0.12500000000E+03 0.  0.
         25    1    1    2    0    0 -0.78372227164E+02  0.12420674133E+03  0.25804691778E+03  0.32215327463E+03  0.12500000000E+03 0.  0.
         25    1    1    2    0    0  0.78757070092E+02 -0.21518572874E+02 -0.15343209314E+03  0.21408440456E+03  0.12500000000E+03 0.  0.
</event>
<event>
 5    0  0.5626800E-005  0.3417693E+03  0.7546771E-02  0.1066045E+00
         21   -1    0    0  502  501  0.00000000000E+00  0.00000000000E+00  0.56907139400E+03  0.56907139400E+03  0.00000000000E+00 0.  1.
         21   -1    0    0  501  502 -0.00000000000E+00 -0.00000000000E+00 -0.20525768733E+03  0.20525768733E+03  0.00000000000E+00 0.  1.
         25    1    1    2    0    0 -0.13623062570E+03 -0.84615297781E+02  0.21731463620E+03  0.29760575113E+03  0.12500000000E+03 0.  0.
         25    1    1    2    0    0 -0.65114380682E+02 -0.70548342160E+02 -0.43717444839E+00  0.15761390254E+03  0.12500000000E+03 0.  0.
         25    1    1    2    0    0  0.20134500638E+03  0.15516363994E+03  0.14693624492E+03  0.31910942767E+03  0.12500000000E+03 0.  0.
</event>
<event>
 5    0  0.5626800E-005  0.2661578E+03  0.7546771E-02  0.1103499E+00
         21   -1    0    0  502  501  0.00000000000E+00  0.00000000000E+00  0.34631976050E+03  0.34631976050E+03  0.00000000000E+00 0. -1.
         21   -1    0    0  501  502 -0.00000000000E+00 -0.00000000000E+00 -0.20455071080E+03  0.20455071080E+03  0.00000000000E+00 0. -1.
         25    1    1    2    0    0 -0.43964758230E+02  0.13607161878E+01  0.87607533660E+02  0.15885474959E+03  0.12500000000E+03 0.  0.
         25    1    1    2    0    0  0.89166694394E+02  0.12992635533E+03  0.20502014423E+02  0.20218033978E+03  0.12500000000E+03 0.  0.
         25    1    1    2    0    0 -0.45201936165E+02 -0.13128707152E+03  0.33659501616E+02  0.18983538193E+03  0.12500000000E+03 0.  0.
</event>
<event>
 5    0  0.5626800E-005  0.2493313E+03  0.7546771E-02  0.1113728E+00
         21   -1    0    0  502  501  0.00000000000E+00  0.00000000000E+00  0.67128302798E+03  0.67128302798E+03  0.00000000000E+00 0. -1.
         21   -1    0    0  501  502 -0.00000000000E+00 -0.00000000000E+00 -0.92607900713E+02  0.92607900713E+02  0.00000000000E+00 0. -1.
         25    1    1    2    0    0 -0.25169469291E+02 -0.98475010637E+01  0.40757778622E+03  0.42717107495E+03  0.12500000000E+03 0.  0.
         25    1    1    2    0    0  0.32806951753E+01  0.73727276122E+02  0.10969267893E+03  0.18194493127E+03  0.12500000000E+03 0.  0.
         25    1    1    2    0    0  0.21888774116E+02 -0.63879775058E+02  0.61404662122E+02  0.15477492247E+03  0.12500000000E+03 0.  0.
</event>
<event>
 5    0  0.5626800E-005  0.4003699E+03  0.7546771E-02  0.1043652E+00
         21   -1    0    0  502  501  0.00000000000E+00  0.00000000000E+00  0.59608449638E+03  0.59608449638E+03  0.00000000000E+00 0.  1.
         21   -1    0    0  501  502 -0.00000000000E+00 -0.00000000000E+00 -0.26891499120E+03  0.26891499120E+03  0.00000000000E+00 0.  1.
         25    1    1    2    0    0 -0.10764609121E+03  0.25265543754E+03  0.13412008969E+03  0.33020546563E+03  0.12500000000E+03 0.  0.
         25    1    1    2    0    0 -0.51469731393E+02  0.41160970708E+02  0.42341980796E+02  0.14751678581E+03  0.12500000000E+03 0.  0.
         25    1    1    2    0    0  0.15911582260E+03 -0.29381640825E+03  0.15070743470E+03  0.38727723614E+03  0.12500000000E+03 0.  0.
</event>
<event>
 5    0  0.5792807E-005  0.2955295E+03  0.7546771E-02  0.1087497E+00
         21   -1    0    0  502  501  0.00000000000E+00  0.00000000000E+00  0.21832261276E+03  0.21832261276E+03  0.00000000000E+00 0.  1.
         21   -1    0    0  501  502 -0.00000000000E+00 -0.00000000000E+00 -0.40003961697E+03  0.40003961697E+03  0.00000000000E+00 0.  1.
         25    1    1    2    0    0 -0.41921513797E+02 -0.98973444495E+02 -0.16840807757E+03  0.23566806450E+03  0.12500000000E+03 0.  0.
         25    1    1    2    0    0 -0.19542354914E+02 -0.19188111272E+02  0.10460599456E+03  0.16528006942E+03  0.12500000000E+03 0.  0.
         25    1    1    2    0    0  0.61463868711E+02  0.11816155577E+03 -0.11791492120E+03  0.21741409581E+03  0.12500000000E+03 0.  0.
</event>
<event>
 5    0  0.5626800E-005  0.3697980E+03  0.7546771E-02  0.1054770E+00
         21   -1    0    0  502  501  0.00000000000E+00  0.00000000000E+00  0.68560347937E+03  0.68560347937E+03  0.00000000000E+00 0.  1.
         21   -1    0    0  501  502 -0.00000000000E+00 -0.00000000000E+00 -0.19946014056E+03  0.19946014056E+03  0.00000000000E+00 0.  1.
         25    1    1    2    0    0  0.18604883754E+02  0.17604324924E+03  0.95725393594E+02  0.23690867076E+03  0.12500000000E+03 0.  0.
         25    1    1    2    0    0  0.16167879706E+03  0.66083746370E+01  0.26913193841E+03  0.33799512468E+03  0.12500000000E+03 0.  0.
         25    1    1    2    0    0 -0.18028368082E+03 -0.18265162388E+03  0.12128600680E+03  0.31015982448E+03  0.12500000000E+03 0.  0.
</event>
<event>
 5    0  0.5626800E-005  0.2393477E+03  0.7546771E-02  0.1120228E+00
         21   -1    0    0  502  501  0.00000000000E+00  0.00000000000E+00  0.57904583233E+02  0.57904583233E+02  0.00000000000E+00 0.  1.
         21   -1    0    0  501  502 -0.00000000000E+00 -0.00000000000E+00 -0.98934036488E+03  0.98934036488E+03  0.00000000000E+00 0.  1.
         25    1    1    2    0    0  0.11252824986E+01 -0.27077058833E+02 -0.65632895938E+02  0.14376060102E+03  0.12500000000E+03 0.  0.
         25    1    1    2    0    0  0.13030622218E+02  0.39595187677E+02 -0.44698852310E+03  0.46600570359E+03  0.12500000000E+03 0.  0.
         25    1    1    2    0    0 -0.14155904717E+02 -0.12518128845E+02 -0.41881436261E+03  0.43747864350E+03  0.12500000000E+03 0.  0.
</event>
<event>
 5    0  0.5626800E-005  0.4749994E+03  0.7546771E-02  0.1020519E+00
         21   -1    0    0  502  501  0.00000000000E+00  0.00000000000E+00  0.20487375641E+03  0.20487375641E+03  0.00000000000E+00 0. -1.
         21   -1    0    0  501  502 -0.00000000000E+00 -0.00000000000E+00 -0.11012851713E+04  0.11012851713E+04  0.00000000000E+00 0. -1.
         25    1    1    2    0    0  0.83899990341E+00  0.36839360248E+03 -0.60448665983E+03  0.71884885211E+03  0.12500000000E+03 0.  0.
         25    1    1    2    0    0 -0.27198374866E+02 -0.34588849030E+03 -0.15906737035E+03  0.40162921660E+03  0.12500000000E+03 0.  0.
         25    1    1    2    0    0  0.26359374962E+02 -0.22505112178E+02 -0.13285738466E+03  0.18568085895E+03  0.12500000000E+03 0.  0.
</event>
<event>
 5    0  0.5626800E-005  0.2420959E+03  0.7546771E-02  0.1118404E+00
         21   -1    0    0  502  501  0.00000000000E+00  0.00000000000E+00  0.26415647936E+03  0.26415647936E+03  0.00000000000E+00 0. -1.
         21   -1    0    0  501  502 -0.00000000000E+00 -0.00000000000E+00 -0.22187759163E+03  0.22187759163E+03  0.00000000000E+00 0. -1.
         25    1    1    2    0    0  0.11026221922E+02  0.45975643888E+02  0.65054246509E+02  0.14863509811E+03  0.12500000000E+03 0.  0.
         25    1    1    2    0    0 -0.10013544989E+03 -0.19280029915E+02  0.45006967765E+02  0.16747971527E+03  0.12500000000E+03 0.  0.
         25    1    1    2    0    0  0.89109227969E+02 -0.26695613973E+02 -0.67782326549E+02  0.16991925761E+03  0.12500000000E+03 0.  0.
</event>
<event>
 5    0  0.5626800E-005  0.2235080E+03  0.7546771E-02  0.1131294E+00
         21   -1    0    0  502  501  0.00000000000E+00  0.00000000000E+00  0.63177657761E+03  0.63177657761E+03  0.00000000000E+00 0. -1.
         21   -1    0    0  501  502 -0.00000000000E+00 -0.00000000000E+00 -0.79071947084E+02  0.79071947084E+02  0.00000000000E+00 0. -1.
         25    1    1    2    0    0  0.51673396566E+01  0.50358402559E+02  0.78369579957E+02  0.15597904080E+03  0.12500000000E+03 0.  0.
         25    1    1    2    0    0 -0.63956284701E+02 -0.76177129194E+00  0.25152172046E+03  0.28806103955E+03  0.12500000000E+03 0.  0.
         25    1    1    2    0    0  0.58788945045E+02 -0.49596631267E+02  0.22281333011E+03  0.26680844434E+03  0.12500000000E+03 0.  0.
</event>
<event>
 5    0  0.5626800E-005  0.3150328E+03  0.7546771E-02  0.1077958E+00
         21   -1    0    0  502  501  0.00000000000E+00  0.00000000000E+00  0.12637646720E+04  0.12637646720E+04  0.00000000000E+00 0.  1.
         21   -1    0    0  501  502 -0.00000000000E+00 -0.00000000000E+00 -0.78531783447E+02  0.78531783447E+02  0.00000000000E+00 0.  1.
         25    1    1    2    0    0 -0.18200698570E+03 -0.79430345776E+02  0.79996729879E+03  0.83367163908E+03  0.12500000000E+03 0.  0.
         25    1    1    2    0    0  0.68001657667E+02  0.44014836237E+02  0.11660621980E+03  0.18916538201E+03  0.12500000000E+03 0.  0.
         25    1    1    2    0    0  0.11400532803E+03  0.35415509539E+02  0.26865937001E+03  0.31945943441E+03  0.12500000000E+03 0.  0.
</event>
<event>
 5    0  0.5626800E-005  0.3917896E+03  0.7546771E-02  0.1046660E+00
         21   -1    0    0  502  501  0.00000000000E+00  0.00000000000E+00  0.30030546719E+04  0.30030546719E+04  0.00000000000E+00 0.  1.
         21   -1    0    0  501  502 -0.00000000000E+00 -0.00000000000E+00 -0.51114324320E+02  0.51114324320E+02  0.00000000000E+00 0.  1.
         25    1    1    2    0    0 -0.88037878120E+02  0.21099511252E+03  0.47284319013E+03  0.53988451352E+03  0.12500000000E+03 0.  0.
         25    1    1    2    0    0  0.18936951595E+02  0.20998703012E+02  0.48432036799E+03  0.50098979282E+03  0.12500000000E+03 0.  0.
         25    1    1    2    0    0  0.69100926525E+02 -0.23199381553E+03  0.19947767894E+04  0.20132946898E+04  0.12500000000E+03 0.  0.
</event>
<event>
 5    0  0.5753684E-005  0.5514559E+03  0.7546771E-02  0.1001157E+00
         21   -1    0    0  502  501  0.00000000000E+00  0.00000000000E+00  0.86050503430E+03  0.86050503430E+03  0.00000000000E+00 0.  1.
         21   -1    0    0  501  502 -0.00000000000E+00 -0.00000000000E+00 -0.35340137460E+03  0.35340137460E+03  0.00000000000E+00 0.  1.
         25    1    1    2    0    0 -0.37802041181E+03  0.16244703953E+03  0.25399191748E+03  0.49942503596E+03  0.12500000000E+03 0.  0.
         25    1    1    2    0    0  0.65639521854E+02 -0.10232314671E+03  0.32166242985E+03  0.36588289378E+03  0.12500000000E+03 0.  0.
         25    1    1    2    0    0  0.31238088995E+03 -0.60123892826E+02 -0.68550687631E+02  0.34859847916E+03  0.12500000000E+03 0.  0.
</event>
<event>
 5    0  0.5626800E-005  0.3188472E+03  0.7546771E-02  0.1076181E+00
         21   -1    0    0  502  501  0.00000000000E+00  0.00000000000E+00  0.21383476246E+04  0.21383476246E+04  0.00000000000E+00 0. -1.
         21   -1    0    0  501  502 -0.00000000000E+00 -0.00000000000E+00 -0.47543023947E+02  0.47543023947E+02  0.00000000000E+00 0. -1.
         25    1    1    2    0    0  0.98122036857E+02  0.98609237760E+01  0.13609683650E+04  0.13702500000E+04  0.12500000000E+03 0.  0.
         25    1    1    2    0    0  0.58261451667E+02  0.14697645924E+02  0.16318172596E+03  0.21415810336E+03  0.12500000000E+03 0.  0.
         25    1    1    2    0    0 -0.15638348852E+03 -0.24558569700E+02  0.56665450968E+03  0.60148254519E+03  0.12500000000E+03 0.  0.
</event>
<event>
 5    0  0.6381511E-005  0.3834996E+03  0.7546771E-02  0.1049648E+00
         21   -1    0    0  502  501  0.00000000000E+00  0.00000000000E+00  0.24784752135E+03  0.24784752135E+03  0.00000000000E+00 0.  1.
         21   -1    0    0  501  502 -0.00000000000E+00 -0.00000000000E+00 -0.59339694863E+03  0.59339694863E+03  0.00000000000E+00 0.  1.
         25    1    1    2    0    0 -0.90469973145E+02  0.16143831122E+03 -0.30380021436E+03  0.37705001606E+03  0.12500000000E+03 0.  0.
         25    1    1    2    0    0  0.78252911578E+02  0.43268371639E+02  0.10184863006E+03  0.18437411315E+03  0.12500000000E+03 0.  0.
         25    1    1    2    0    0  0.12217061567E+02 -0.20470668286E+03 -0.14359784298E+03  0.27982034077E+03  0.12500000000E+03 0.  0.
</event>
<event>
 5    0  0.5626800E-005  0.2725949E+03  0.7546771E-02  0.1099804E+00
         21   -1    0    0  502  501  0.00000000000E+00  0.00000000000E+00  0.15469969450E+03  0.15469969450E+03  0.00000000000E+00 0. -1.
         21   -1    0    0  501  502 -0.00000000000E+00 -0.00000000000E+00 -0.48033693153E+03  0.48033693153E+03  0.00000000000E+00 0. -1.
         25    1    1    2    0    0  0.14303126866E+03 -0.89125084319E+02 -0.16524256007E+03  0.26707925439E+03  0.12500000000E+03 0.  0.
         25    1    1    2    0    0 -0.64803108235E+02  0.14609500983E+02 -0.14400295111E+03  0.20192753721E+03  0.12500000000E+03 0.  0.
         25    1    1    2    0    0 -0.78228160424E+02  0.74515583337E+02 -0.16391725852E+02  0.16602983443E+03  0.12500000000E+03 0.  0.
</event>
<event>
 5    0  0.5626800E-005  0.2604457E+03  0.7546771E-02  0.1106876E+00
         21   -1    0    0  502  501  0.00000000000E+00  0.00000000000E+00  0.13147602680E+04  0.13147602680E+04  0.00000000000E+00 0.  1.
         21   -1    0    0  501  502 -0.00000000000E+00 -0.00000000000E+00 -0.51592661824E+02  0.51592661824E+02  0.00000000000E+00 0.  1.
         25    1    1    2    0    0  0.71554421132E+02  0.60437089053E+02  0.16054649094E+03  0.22399297460E+03  0.12500000000E+03 0.  0.
         25    1    1    2    0    0 -0.54999512485E+02 -0.57879426954E+02  0.81376526048E+03  0.82717221520E+03  0.12500000000E+03 0.  0.
         25    1    1    2    0    0 -0.16554908647E+02 -0.25576620986E+01  0.28885585479E+03  0.31518774005E+03  0.12500000000E+03 0.  0.
</event>
<event>
 5    0  0.5761111E-005  0.3251769E+03  0.7546771E-02  0.1073291E+00
         21   -1    0    0  502  501  0.00000000000E+00  0.00000000000E+00  0.51873996938E+03  0.51873996938E+03  0.00000000000E+00 0. -1.
         21   -1    0    0  501  502 -0.00000000000E+00 -0.00000000000E+00 -0.20384010034E+03  0.20384010034E+03  0.00000000000E+00 0. -1.
         25    1    1    2    0    0 -0.12467293990E+03 -0.28643803307E+02  0.87479325198E+01  0.17906796401E+03  0.12500000000E+03 0.  0.
         25    1    1    2    0    0 -0.13158486574E+02  0.16040428251E+03  0.70542710418E+02  0.21564775354E+03  0.12500000000E+03 0.  0.
         25    1    1    2    0    0  0.13783142647E+03 -0.13176047920E+03  0.23560922610E+03  0.32786435217E+03  0.12500000000E+03 0.  0.
</event>
<event>
 5    0  0.5626800E-005  0.2727528E+03  0.7546771E-02  0.1099714E+00
         21   -1    0    0  502  501  0.00000000000E+00  0.00000000000E+00  0.18556116144E+03  0.18556116144E+03  0.00000000000E+00 0.  1.
         21   -1    0    0  501  502 -0.00000000000E+00 -0.00000000000E+00 -0.40091409149E+03  0.40091409149E+03  0.00000000000E+00 0.  1.
         25    1    1    2    0    0 -0.84858842214E+02  0.97517927670E+02 -0.10639828871E+03  0.20894105667E+03  0.12500000000E+03 0.  0.
         25    1    1    2    0    0  0.13624801220E+03 -0.83751498290E+02 -0.12856672252E+03  0.24027533463E+03  0.12500000000E+03 0.  0.
         25    1    1    2    0    0 -0.51389169986E+02 -0.13766429380E+02  0.19612081180E+02  0.13725886164E+03  0.12500000000E+03 0.  0.
</event>
<event>
 5    0  0.5626800E-005  0.3773243E+03  0.7546771E-02  0.1051927E+00
         21   -1    0    0  502  501  0.00000000000E+00  0.00000000000E+00  0.33472477821E+03  0.33472477821E+03  0.00000000000E+00 0. -1.
         21   -1    0    0  501  502 -0.00000000000E+00 -0.00000000000E+00 -0.42534540469E+03  0.42534540469E+03  0.00000000000E+00 0. -1.
         25    1    1    2    0    0  0.40302295119E+02 -0.30383115840E+02  0.37278199373E+02  0.13986448037E+03  0.12500000000E+03 0.  0.
         25    1    1    2    0    0  0.24547730711E+03  0.88984452621E+02 -0.62785717971E+02  0.29621679138E+03  0.12500000000E+03 0.  0.
         25    1    1    2    0    0 -0.28577960223E+03 -0.58601336781E+02 -0.65113107883E+02  0.32398891114E+03  0.12500000000E+03 0.  0.
</event>
<event>
 5    0  0.5626800E-005  0.5039142E+03  0.7546771E-02  0.1012762E+00
         21   -1    0    0  502  501  0.00000000000E+00  0.00000000000E+00  0.30568383503E+03  0.30568383503E+03  0.00000000000E+00 0.  1.
         21   -1    0    0  501  502 -0.00000000000E+00 -0.00000000000E+00 -0.83069317938E+03  0.83069317938E+03  0.00000000000E+00 0.  1.
         25    1    1    2    0    0 -0.31476826022E+03  0.10616452287E+03 -0.17866238221E+03  0.39736030296E+03  0.12500000000E+03 0.  0.
         25    1    1    2    0    0  0.29074010532E+03 -0.17989905090E+03 -0.43503202518E+03  0.56724892268E+03  0.12500000000E+03 0.  0.
         25    1    1    2    0    0  0.24028154893E+02  0.73734528031E+02  0.88685063039E+02  0.17176778877E+03  0.12500000000E+03 0.  0.
</event>
<event>
 5    0  0.5626800E-005  0.3325350E+03  0.7546771E-02  0.1070021E+00
         21   -1    0    0  502  501  0.00000000000E+00  0.00000000000E+00  0.13657484084E+04  0.13657484084E+04  0.00000000000E+00 0.  1.
         21   -1    0    0  501  502 -0.00000000000E+00 -0.00000000000E+00 -0.80966255018E+02  0.80966255018E+02  0.00000000000E+00 0.  1.
         25    1    1    2    0    0  0.22598240165E+03  0.33496061390E+02  0.62370802274E+03  0.67588958389E+03  0.12500000000E+03 0.  0.
         25    1    1    2    0    0 -0.10445278168E+03 -0.11949129247E+03  0.33887104355E+03  0.39452140212E+03  0.12500000000E+03 0.  0.
         25    1    1    2    0    0 -0.12152961997E+03  0.85995231082E+02  0.32220308713E+03  0.37630367744E+03  0.12500000000E+03 0.  0.
</event>
<event>
 5    0  0.5626800E-005  0.3462425E+03  0.7546771E-02  0.1064168E+00
         21   -1    0    0  502  501  0.00000000000E+00  0.00000000000E+00  0.91617542219E+03  0.91617542219E+03  0.00000000000E+00 0.  1.
         21   -1    0    0  501  502 -0.00000000000E+00 -0.00000000000E+00 -0.13085251033E+03  0.13085251033E+03  0.00000000000E+00 0.  1.
         25    1    1    2    0    0 -0.10439701852E+03 -0.43762827866E+02  0.31068379917E+02  0.17147643223E+03  0.12500000000E+03 0.  0.
         25    1    1    2    0    0 -0.60225984281E+02 -0.57547618599E+02  0.54201860126E+03  0.56244827469E+03  0.12500000000E+03 0.  0.
         25    1    1    2    0    0  0.16462300280E+03  0.10131044647E+03  0.21223593069E+03  0.31310322561E+03  0.12500000000E+03 0.  0.
</event>
<event>
 5    0  0.5626800E-005  0.2354809E+03  0.7546771E-02  0.1122840E+00
         21   -1    0    0  502  501  0.00000000000E+00  0.00000000000E+00  0.68035732371E+02  0.68035732371E+02  0.00000000000E+00 0. -1.
         21   -1    0    0  501  502 -0.00000000000E+00 -0.00000000000E+00 -0.81503120954E+03  0.81503120954E+03  0.00000000000E+00 0. -1.
         25    1    1    2    0    0 -0.45707319706E+02  0.24978000931E+02 -0.39211633445E+03  0.41484127006E+03  0.12500000000E+03 0.  0.
         25    1    1    2    0    0 -0.37456409647E+02 -0.15601153988E+02 -0.25729810316E+03  0.28891814156E+03  0.12500000000E+03 0.  0.
         25    1    1    2    0    0  0.83163729353E+02 -0.93768469436E+01 -0.97581039557E+02  0.17930753029E+03  0.12500000000E+03 0.  0.
</event>
<event>
 5    0  0.5626800E-005  0.5333106E+03  0.7546771E-02  0.1005432E+00
         21   -1    0    0  502  501  0.00000000000E+00  0.00000000000E+00  0.38904901051E+03  0.38904901051E+03  0.00000000000E+00 0. -1.
         21   -1    0    0  501  502 -0.00000000000E+00 -0.00000000000E+00 -0.73106508998E+03  0.73106508998E+03  0.00000000000E+00 0. -1.
         25    1    1    2    0    0  0.15973522188E+03 -0.63732207388E+02 -0.30911026919E+03  0.37516835406E+03  0.12500000000E+03 0.  0.
         25    1    1    2    0    0 -0.18611825816E+03  0.29084780961E+03  0.17951090279E+03  0.40875618478E+03  0.12500000000E+03 0.  0.
         25    1    1    2    0    0  0.26383036277E+02 -0.22711560222E+03 -0.21241671308E+03  0.33618956166E+03  0.12500000000E+03 0.  0.
</event>
<event>
 5    0  0.5626800E-005  0.3508666E+03  0.7546771E-02  0.1062260E+00
         21   -1    0    0  502  501  0.00000000000E+00  0.00000000000E+00  0.13907669612E+04  0.13907669612E+04  0.00000000000E+00 0. -1.
         21   -1    0    0  501  502 -0.00000000000E+00 -0.00000000000E+00 -0.88517616290E+02  0.88517616290E+02  0.00000000000E+00 0. -1.
         25    1    1    2    0    0 -0.16063831327E+03  0.19170480355E+03  0.49055398941E+03  0.56464468112E+03  0.12500000000E+03 0.  0.
         25    1    1    2    0    0 -0.30185955230E+01 -0.12054164871E+02  0.13276558171E+03  0.18277339658E+03  0.12500000000E+03 0.  0.
         25    1    1    2    0    0  0.16365690879E+03 -0.17965063868E+03  0.67892977376E+03  0.73186649976E+03  0.12500000000E+03 0.  0.
</event>
<event>
 5    0  0.5626800E-005  0.2759726E+03  0.7546771E-02  0.1097909E+00
         21   -1    0    0  502  501  0.00000000000E+00  0.00000000000E+00  0.80734144167E+03  0.80734144167E+03  0.00000000000E+00 0.  1.
         21   -1    0    0  501  502 -0.00000000000E+00 -0.00000000000E+00 -0.94335374870E+02  0.94335374870E+02  0.00000000000E+00 0.  1.
         25    1    1    2    0    0  0.14470270764E+03  0.12866901515E+02  0.31553444129E+03  0.36917667098E+03  0.12500000000E+03 0.  0.
         25    1    1    2    0    0 -0.17938060752E+03 -0.14232882378E+02  0.20272112802E+03  0.29849762652E+03  0.12500000000E+03 0.  0.
         25    1    1    2    0    0  0.34677899876E+02  0.13659808630E+01  0.19475049750E+03  0.23400251904E+03  0.12500000000E+03 0.  0.
</event>
<event>
 5    0  0.5626800E-005  0.2301404E+03  0.7546771E-02  0.1126541E+00
         21   -1    0    0  502  501  0.00000000000E+00  0.00000000000E+00  0.19228812827E+03  0.19228812827E+03  0.00000000000E+00 0. -1.
         21   -1    0    0  501  502 -0.00000000000E+00 -0.00000000000E+00 -0.27544387981E+03  0.27544387981E+03  0.00000000000E+00 0. -1.
         25    1    1    2    0    0 -0.17677206594E+02 -0.15855678363E+02 -0.14478099124E+01  0.12724379090E+03  0.12500000000E+03 0.  0.
         25    1    1    2    0    0 -0.51396493068E+02 -0.71854234665E+02 -0.80370597201E+02  0.17288453787E+03  0.12500000000E+03 0.  0.
         25    1    1    2    0    0  0.69073699662E+02  0.87709913027E+02 -0.13373444191E+01  0.16760367931E+03  0.12500000000E+03 0.  0.
</event>
<event>
 5    0  0.5626800E-005  0.3287032E+03  0.7546771E-02  0.1071712E+00
         21   -1    0    0  502  501  0.00000000000E+00  0.00000000000E+00  0.12688940772E+04  0.12688940772E+04  0.00000000000E+00 0. -1.
         21   -1    0    0  501  502 -0.00000000000E+00 -0.00000000000E+00 -0.85149588933E+02  0.85149588933E+02  0.00000000000E+00 0. -1.
         25    1    1    2    0    0  0.19269231288E+03 -0.13708295133E+03  0.70356041036E+03  0.75269138032E+03  0.12500000000E+03 0.  0.
         25    1    1    2    0    0 -0.72784223373E+02  0.11680074113E+03  0.21867656290E+03  0.28702682011E+03  0.12500000000E+03 0.  0.
         25    1    1    2    0    0 -0.11990808951E+03  0.20282210195E+02  0.26150751500E+03  0.31432546569E+03  0.12500000000E+03 0.  0.
</event>
<event>
 5    0  0.5626800E-005  0.2567871E+03  0.7546771E-02  0.1109089E+00
         21   -1    0    0  502  501  0.00000000000E+00  0.00000000000E+00  0.11240754219E+03  0.11240754219E+03  0.00000000000E+00 0.  1.
         21   -1    0    0  501  502 -0.00000000000E+00 -0.00000000000E+00 -0.58661188509E+03  0.58661188509E+03  0.00000000000E+00 0.  1.
         25    1    1    2    0    0  0.14406859733E+02 -0.87733061417E+01 -0.17393829390E+03  0.21485822905E+03  0.12500000000E+03 0.  0.
         25    1    1    2    0    0  0.24293856337E+02 -0.66187183291E+01  0.27905237514E+02  0.13052854542E+03  0.12500000000E+03 0.  0.
         25    1    1    2    0    0 -0.38700716070E+02  0.15392024471E+02 -0.32817128652E+03  0.35363265281E+03  0.12500000000E+03 0.  0.
</event>
<event>
 5    0  0.5626800E-005  0.4665808E+03  0.7546771E-02  0.1022890E+00
         21   -1    0    0  502  501  0.00000000000E+00  0.00000000000E+00  0.11965831332E+04  0.11965831332E+04  0.00000000000E+00 0. -1.
         21   -1    0    0  501  502 -0.00000000000E+00 -0.00000000000E+00 -0.18193276527E+03  0.18193276527E+03  0.00000000000E+00 0. -1.
         25    1    1    2    0    0  0.15686204359E+03  0.45107666275E+02  0.35415553030E+03  0.40950157743E+03  0.12500000000E+03 0.  0.
         25    1    1    2    0    0 -0.39287008469E+03 -0.12296360686E+03  0.38103610423E+03  0.57470032606E+03  0.12500000000E+03 0.  0.
         25    1    1    2    0    0  0.23600804110E+03  0.77855940587E+02  0.27945873335E+03  0.39431399493E+03  0.12500000000E+03 0.  0.
</event>
<event>
 5    0  0.5626800E-005  0.2728856E+03  0.7546771E-02  0.1099639E+00
         21   -1    0    0  502  501  0.00000000000E+00  0.00000000000E+00  0.60750848389E+02  0.60750848389E+02  0.00000000000E+00 0.  1.
         21   -1    0    0  501  502 -0.00000000000E+00 -0.00000000000E+00 -0.12257699006E+04  0.12257699006E+04  0.00000000000E+00 0.  1.
         25    1    1    2    0    0  0.60237467521E+02 -0.37941995193E+02 -0.86558899217E+03  0.87746079734E+03  0.12500000000E+03 0.  0.
         25    1    1    2    0    0 -0.94105027635E+01 -0.18501889743E+02 -0.18053714600E+03  0.22056640399E+03  0.12500000000E+03 0.  0.
         25    1    1    2    0    0 -0.50826964757E+02  0.56443884936E+02 -0.11889291400E+03  0.18849354761E+03  0.12500000000E+03 0.  0.
</event>
<event>
 5    0  0.5626800E-005  0.2804720E+03  0.7546771E-02  0.1095431E+00
         21   -1    0    0  502  501  0.00000000000E+00  0.00000000000E+00  0.11042075375E+04  0.11042075375E+04  0.00000000000E+00 0.  1.
         21   -1    0    0  501  502 -0.00000000000E+00 -0.00000000000E+00 -0.71240723817E+02  0.71240723817E+02  0.00000000000E+00 0.  1.
         25    1    1    2    0    0 -0.99765523812E+02 -0.28610361426E+02  0.64588605931E+03  0.66600714270E+03  0.12500000000E+03 0.  0.
         25    1    1    2    0    0 -0.18044186463E+02  0.81693754581E+02  0.19623577679E+03  0.24725076803E+03  0.12500000000E+03 0.  0.
         25    1    1    2    0    0  0.11780971028E+03 -0.53083393154E+02  0.19084497757E+03  0.26219035056E+03  0.12500000000E+03 0.  0.
</event>
<event>
 5    0  0.5626800E-005  0.2140871E+03  0.7546771E-02  0.1138370E+00
         21   -1    0    0  502  501  0.00000000000E+00  0.00000000000E+00  0.42258291990E+02  0.42258291990E+02  0.00000000000E+00 0. -1.
         21   -1    0    0  501  502 -0.00000000000E+00 -0.00000000000E+00 -0.10845985687E+04  0.10845985687E+04  0.00000000000E+00 0. -1.
         25    1    1    2    0    0 -0.97258837009E+01 -0.32310494481E+02 -0.19963910079E+03  0.23794816963E+03  0.12500000000E+03 0.  0.
         25    1    1    2    0    0 -0.49697351671E+02 -0.11073517377E+02 -0.34361941306E+03  0.36917712630E+03  0.12500000000E+03 0.  0.
         25    1    1    2    0    0  0.59423235372E+02  0.43384011858E+02 -0.49908176284E+03  0.51973156474E+03  0.12500000000E+03 0.  0.
</event>
<event>
 5    0  0.5626800E-005  0.3226039E+03  0.7546771E-02  0.1074457E+00
         21   -1    0    0  502  501  0.00000000000E+00  0.00000000000E+00  0.10931284350E+04  0.10931284350E+04  0.00000000000E+00 0.  1.
         21   -1    0    0  501  502 -0.00000000000E+00 -0.00000000000E+00 -0.95206818524E+02  0.95206818524E+02  0.00000000000E+00 0.  1.
         25    1    1    2    0    0 -0.17147942806E+03 -0.10583232441E+03  0.56537433601E+03  0.61308956519E+03  0.12500000000E+03 0.  0.
         25    1    1    2    0    0  0.85606630103E+02 -0.40737522776E+02  0.25576464932E+03  0.30004765742E+03  0.12500000000E+03 0.  0.
         25    1    1    2    0    0  0.85872797956E+02  0.14656984718E+03  0.17678263110E+03  0.27519803086E+03  0.12500000000E+03 0.  0.
</event>
<event>
 5    0  0.5626800E-005  0.2853928E+03  0.7546771E-02  0.1092779E+00
         21   -1    0    0  502  501  0.00000000000E+00  0.00000000000E+00  0.44677738147E+03  0.44677738147E+03  0.00000000000E+00 0. -1.
         21   -1    0    0  501  502 -0.00000000000E+00 -0.00000000000E+00 -0.18230341715E+03  0.18230341715E+03  0.00000000000E+00 0. -1.
         25    1    1    2    0    0 -0.45053019583E+02  0.46174379673E+02 -0.76052271632E+01  0.14087117303E+03  0.12500000000E+03 0.  0.
         25    1    1    2    0    0 -0.10789496667E+03 -0.45686168134E+02  0.22906569617E+03  0.28605007071E+03  0.12500000000E+03 0.  0.
         25    1    1    2    0    0  0.15294798625E+03 -0.48821153884E+00  0.43013495317E+02  0.20215955488E+03  0.12500000000E+03 0.  0.
</event>
<event>
 5    0  0.5626800E-005  0.4601218E+03  0.7546771E-02  0.1024746E+00
         21   -1    0    0  502  501  0.00000000000E+00  0.00000000000E+00  0.25086247403E+03  0.25086247403E+03  0.00000000000E+00 0.  1.
         21   -1    0    0  501  502 -0.00000000000E+00 -0.00000000000E+00 -0.84393675833E+03  0.84393675833E+03  0.00000000000E+00 0.  1.
         25    1    1    2    0    0 -0.61436545164E+02  0.17949096783E+03 -0.14234910722E+03  0.26810394428E+03  0.12500000000E+03 0.  0.
         25    1    1    2    0    0 -0.27807139152E+03 -0.78593793794E+02 -0.17018222213E+03  0.35789338068E+03  0.12500000000E+03 0.  0.
         25    1    1    2    0    0  0.33950793669E+03 -0.10089717404E+03 -0.28054295495E+03  0.46880190739E+03  0.12500000000E+03 0.  0.
</event>
<event>
 5    0  0.5626800E-005  0.2261091E+03  0.7546771E-02  0.1129409E+00
         21   -1    0    0  502  501  0.00000000000E+00  0.00000000000E+00  0.10350868868E+03  0.10350868868E+03  0.00000000000E+00 0. -1.
         21   -1    0    0  501  502 -0.00000000000E+00 -0.00000000000E+00 -0.49392304919E+03  0.49392304919E+03  0.00000000000E+00 0. -1.
         25    1    1    2    0    0 -0.22434379034E+02 -0.19739189832E+02 -0.34070006534E+02  0.13296128129E+03  0.12500000000E+03 0.  0.
         25    1    1    2    0    0 -0.25586378313E+02  0.78096929279E+02 -0.20872486939E+03  0.25679732129E+03  0.12500000000E+03 0.  0.
         25    1    1    2    0    0  0.48020757348E+02 -0.58357739447E+02 -0.14761948459E+03  0.20767313529E+03  0.12500000000E+03 0.  0.
</event>
<event>
 5    0  0.5626800E-005  0.4202829E+03  0.7546771E-02  0.1036974E+00
         21   -1    0    0  502  501  0.00000000000E+00  0.00000000000E+00  0.12717730441E+04  0.12717730441E+04  0.00000000000E+00 0. -1.
         21   -1    0    0  501  502 -0.00000000000E+00 -0.00000000000E+00 -0.13889091170E+03  0.13889091170E+03  0.00000000000E+00 0. -1.
         25    1    1    2    0    0  0.15265218592E+03 -0.13673234406E+03  0.21858382266E+03  0.32465722124E+03  0.12500000000E+03 0.  0.
         25    1    1    2    0    0 -0.25028402696E+02  0.28054694483E+03  0.72801371275E+03  0.79054536565E+03  0.12500000000E+03 0.  0.
         25    1    1    2    0    0 -0.12762378323E+03 -0.14381460077E+03  0.18628459699E+03  0.29546136890E+03  0.12500000000E+03 0.  0.
</event>
<event>
 5    0  0.5626800E-005  0.2853493E+03  0.7546771E-02  0.1092803E+00
         21   -1    0    0  502  501  0.00000000000E+00  0.00000000000E+00  0.58598458219E+03  0.58598458219E+03  0.00000000000E+00 0.  1.
         21   -1    0    0  501  502 -0.00000000000E+00 -0.00000000000E+00 -0.13895283235E+03  0.13895283235E+03  0.00000000000E+00 0.  1.
         25    1    1    2    0    0  0.72116917001E+02 -0.59305501712E+02  0.34402208322E+03  0.37774883983E+03  0.12500000000E+03 0.  0.
         25    1    1    2    0    0 -0.49314339152E+02  0.12072901537E+03  0.15907420390E+02  0.18134344549E+03  0.12500000000E+03 0.  0.
         25    1    1    2    0    0 -0.22802577849E+02 -0.61423513662E+02  0.87102246224E+02  0.16584512922E+03  0.12500000000E+03 0.  0.
</event>
<event>
 5    0  0.5626800E-005  0.4587969E+03  0.7546771E-02  0.1025131E+00
         21   -1    0    0  502  501  0.00000000000E+00  0.00000000000E+00  0.15777305405E+04  0.15777305405E+04  0.00000000000E+00 0. -1.
         21   -1    0    0  501  502 -0.00000000000E+00 -0.00000000000E+00 -0.13341603293E+03  0.13341603293E+03  0.00000000000E+00 0. -1.
         25    1    1    2    0    0 -0.24739244445E+03  0.14810557903E+03  0.26693565414E+03  0.41233230235E+03  0.12500000000E+03 0.  0.
         25    1    1    2    0    0  0.31178608611E+03 -0.16825177997E+03  0.63193569232E+03  0.73517817172E+03  0.12500000000E+03 0.  0.
         25    1    1    2    0    0 -0.64393641659E+02  0.20146200945E+02  0.54544316114E+03  0.56363609938E+03  0.12500000000E+03 0.  0.
</event>
<event>
 5    0  0.5626800E-005  0.2386127E+03  0.7546771E-02  0.1120720E+00
         21   -1    0    0  502  501  0.00000000000E+00  0.00000000000E+00  0.30224958740E+04  0.30224958740E+04  0.00000000000E+00 0. -1.
         21   -1    0    0  501  502 -0.00000000000E+00 -0.00000000000E+00 -0.18837419424E+02  0.18837419424E+02  0.00000000000E+00 0. -1.
         25    1    1    2    0    0 -0.10864803677E+03 -0.70970665181E+02  0.10424543612E+04  0.10579117763E+04  0.12500000000E+03 0.  0.
         25    1    1    2    0    0  0.57908475981E+02 -0.64712461728E+01  0.10529045984E+04  0.10618984706E+04  0.12500000000E+03 0.  0.
         25    1    1    2    0    0  0.50739560786E+02  0.77441911354E+02  0.90829949502E+03  0.92152304655E+03  0.12500000000E+03 0.  0.
</event>
<event>
 5    0  0.5626800E-005  0.3018614E+03  0.7546771E-02  0.1084314E+00
         21   -1    0    0  502  501  0.00000000000E+00  0.00000000000E+00  0.89955482420E+03  0.89955482420E+03  0.00000000000E+00 0. -1.
         21   -1    0    0  501  502 -0.00000000000E+00 -0.00000000000E+00 -0.10129488816E+03  0.10129488816E+03  0.00000000000E+00 0. -1.
         25    1    1    2    0    0 -0.15902968498E+02  0.87547531743E+02  0.12410154573E+03  0.19734150190E+03  0.12500000000E+03 0.  0.
         25    1    1    2    0    0  0.58594051955E+02 -0.17951338446E+03  0.19775139376E+03  0.30064752096E+03  0.12500000000E+03 0.  0.
         25    1    1    2    0    0 -0.42691083456E+02  0.91965852721E+02  0.47640699655E+03  0.50286068950E+03  0.12500000000E+03 0.  0.
</event>
<event>
 5    0  0.5626800E-005  0.3348869E+03  0.7546771E-02  0.1068995E+00
         21   -1    0    0  502  501  0.00000000000E+00  0.00000000000E+00  0.22668206186E+03  0.22668206186E+03  0.00000000000E+00 0.  1.
         21   -1    0    0  501  502 -0.00000000000E+00 -0.00000000000E+00 -0.49474237176E+03  0.49474237176E+03  0.00000000000E+00 0.  1.
         25    1    1    2    0    0  0.81088874777E+02  0.94191615187E+02 -0.10784829769E+03  0.20664878731E+03  0.12500000000E+03 0.  0.
         25    1    1    2    0    0 -0.24349179335E+03 -0.62355264425E+02 -0.75049636647E+02  0.29057508564E+03  0.12500000000E+03 0.  0.
         25    1    1    2    0    0  0.16240291858E+03 -0.31836350763E+02 -0.85162375555E+02  0.22420056067E+03  0.12500000000E+03 0.  0.
</event>
<event>
 5    0  0.5626800E-005  0.2508673E+03  0.7546771E-02  0.1112758E+00
         21   -1    0    0  502  501  0.00000000000E+00  0.00000000000E+00  0.13078533734E+03  0.13078533734E+03  0.00000000000E+00 0.  1.
         21   -1    0    0  501  502 -0.00000000000E+00 -0.00000000000E+00 -0.48120378008E+03  0.48120378008E+03  0.00000000000E+00 0.  1.
         25    1    1    2    0    0 -0.28331418643E+02  0.10346774255E+03 -0.21935239664E+02  0.16617580381E+03  0.12500000000E+03 0.  0.
         25    1    1    2    0    0 -0.46017720982E+02 -0.28500875292E+02 -0.12675717450E+03  0.18607071727E+03  0.12500000000E+03 0.  0.
         25    1    1    2    0    0  0.74349139626E+02 -0.74966867262E+02 -0.20172602858E+03  0.25974259634E+03  0.12500000000E+03 0.  0.
</event>
<event>
 5    0  0.5626800E-005  0.2666517E+03  0.7546771E-02  0.1103211E+00
         21   -1    0    0  502  501  0.00000000000E+00  0.00000000000E+00  0.38072749677E+02  0.38072749677E+02  0.00000000000E+00 0.  1.
         21   -1    0    0  501  502 -0.00000000000E+00 -0.00000000000E+00 -0.18675592752E+04  0.18675592752E+04  0.00000000000E+00 0.  1.
         25    1    1    2    0    0 -0.52727845092E+01  0.14666526488E+03 -0.49912251036E+03  0.53505773757E+03  0.12500000000E+03 0.  0.
         25    1    1    2    0    0 -0.60039843455E+02 -0.81389314658E+02 -0.48253614402E+03  0.50862081518E+03  0.12500000000E+03 0.  0.
         25    1    1    2    0    0  0.65312627965E+02 -0.65275950218E+02 -0.84782787117E+03  0.86195347217E+03  0.12500000000E+03 0.  0.
</event>
<event>
 5    0  0.5626800E-005  0.3214045E+03  0.7546771E-02  0.1075005E+00
         21   -1    0    0  502  501  0.00000000000E+00  0.00000000000E+00  0.26792112216E+03  0.26792112216E+03  0.00000000000E+00 0.  1.
         21   -1    0    0  501  502 -0.00000000000E+00 -0.00000000000E+00 -0.38556442822E+03  0.38556442822E+03  0.00000000000E+00 0.  1.
         25    1    1    2    0    0  0.15630382375E+03  0.42950968843E+02  0.76315181810E+02  0.21845978581E+03  0.12500000000E+03 0.  0.
         25    1    1    2    0    0  0.20932202439E+02 -0.72650378507E+02 -0.55284552306E+01  0.14619096557E+03  0.12500000000E+03 0.  0.
         25    1    1    2    0    0 -0.17723602618E+03  0.29699409664E+02 -0.18843003265E+03  0.28883479900E+03  0.12500000000E+03 0.  0.
</event>
<event>
 5    0  0.5626800E-005  0.3359110E+03  0.7546771E-02  0.1068551E+00
         21   -1    0    0  502  501  0.00000000000E+00  0.00000000000E+00  0.69467314440E+02  0.69467314440E+02  0.00000000000E+00 0. -1.
         21   -1    0    0  501  502 -0.00000000000E+00 -0.00000000000E+00 -0.16243065672E+04  0.16243065672E+04  0.00000000000E+00 0. -1.
         25    1    1    2    0    0  0.87798342612E+02  0.96764767637E+02 -0.28425114315E+03  0.33689120143E+03  0.12500000000E+03 0.  0.
         25    1    1    2    0    0  0.11306496462E+03 -0.14409247302E+03 -0.76818994252E+03  0.79955432260E+03  0.12500000000E+03 0.  0.
         25    1    1    2    0    0 -0.20086330723E+03  0.47327705382E+02 -0.50239816706E+03  0.55732835757E+03  0.12500000000E+03 0.  0.
</event>
<event>
 5    0  0.5626800E-005  0.2369640E+03  0.7546771E-02  0.1121832E+00
         21   -1    0    0  502  501  0.00000000000E+00  0.00000000000E+00  0.16653403298E+03  0.16653403298E+03  0.00000000000E+00 0.  1.
         21   -1    0    0  501  502 -0.00000000000E+00 -0.00000000000E+00 -0.33717995119E+03  0.33717995119E+03  0.00000000000E+00 0.  1.
         25    1    1    2    0    0  0.21256518554E+02 -0.52151462069E+02 -0.19127797323E+03  0.23533779471E+03  0.12500000000E+03 0.  0.
         25    1    1    2    0    0  0.26063581533E+02  0.13244465211E+02  0.91775843237E+01  0.12870102639E+03  0.12500000000E+03 0.  0.
         25    1    1    2    0    0 -0.47320100087E+02  0.38906996858E+02  0.11454470694E+02  0.13967516306E+03  0.12500000000E+03 0.  0.
</event>
<event>
 5    0  0.6206990E-005  0.2493207E+03  0.7546771E-02  0.1113735E+00
         21   -1    0    0  502  501  0.00000000000E+00  0.00000000000E+00  0.25602268477E+03  0.25602268477E+03  0.00000000000E+00 0. -1.
         21   -1    0    0  501  502 -0.00000000000E+00 -0.00000000000E+00 -0.24279415604E+03  0.24279415604E+03  0.00000000000E+00 0. -1.
         25    1    1    2    0    0  0.96771666964E+02  0.41434565649E+02  0.88570693109E+02  0.18587992478E+03  0.12500000000E+03 0.  0.
         25    1    1    2    0    0 -0.57670411420E+02 -0.27464661079E+02  0.30873832423E+02  0.14373022469E+03  0.12500000000E+03 0.  0.
         25    1    1    2    0    0 -0.39101255543E+02 -0.13969904570E+02 -0.10621599680E+03  0.16920669134E+03  0.12500000000E+03 0.  0.
</event>
<event>
 5    0  0.5626800E-005  0.3097589E+03  0.7546771E-02  0.1080461E+00
         21   -1    0    0  502  501  0.00000000000E+00  0.00000000000E+00  0.63379685242E+02  0.63379685242E+02  0.00000000000E+00 0.  1.
         21   -1    0    0  501  502 -0.00000000000E+00 -0.00000000000E+00 -0.15139015900E+04  0.15139015900E+04  0.00000000000E+00 0.  1.
         25    1    1    2    0    0  0.53757170664E+02 -0.45394925182E+02 -0.23111575482E+03  0.27201107470E+03  0.12500000000E+03 0.  0.
         25    1    1    2    0    0 -0.74409151261E+02 -0.10295754080E+03 -0.20222512543E+03  0.26954958422E+03  0.12500000000E+03 0.  0.
         25    1    1    2    0    0  0.20651980597E+02  0.14835246598E+03 -0.10171810245E+04  0.10357206163E+04  0.12500000000E+03 0.  0.
</event>
<event>
 5    0  0.5626800E-005  0.7201625E+03  0.7546771E-02  0.9683360E-01
         21   -1    0    0  502  501  0.00000000000E+00  0.00000000000E+00  0.48178767101E+03  0.48178767101E+03  0.00000000000E+00 0.  1.
         21   -1    0    0  501  502 -0.00000000000E+00 -0.00000000000E+00 -0.10764784428E+04  0.10764784428E+04  0.00000000000E+00 0.  1.
         25    1    1    2    0    0  0.37959993850E+03 -0.19305514290E+03 -0.35443451968E-01  0.44383713540E+03  0.12500000000E+03 0.  0.
         25    1    1    2    0    0  0.24416452428E+03  0.41733466961E+02 -0.10165563580E+03  0.29549427316E+03  0.12500000000E+03 0.  0.
         25    1    1    2    0    0 -0.62376446278E+03  0.15132167594E+03 -0.49299969257E+03  0.81893470528E+03  0.12500000000E+03 0.  0.
</event>
<event>
 5    0  0.5626800E-005  0.3736630E+03  0.7546771E-02  0.1053301E+00
         21   -1    0    0  502  501  0.00000000000E+00  0.00000000000E+00  0.20503169901E+03  0.20503169901E+03  0.00000000000E+00 0. -1.
         21   -1    0    0  501  502 -0.00000000000E+00 -0.00000000000E+00 -0.68098763052E+03  0.68098763052E+03  0.00000000000E+00 0. -1.
         25    1    1    2    0    0 -0.12062210610E+03  0.34871814778E+02  0.77490823174E+02  0.19337932573E+03  0.12500000000E+03 0.  0.
         25    1    1    2    0    0 -0.84190402878E+02  0.54459999258E+02 -0.22326552798E+03  0.27482068961E+03  0.12500000000E+03 0.  0.
         25    1    1    2    0    0  0.20481250898E+03 -0.89331814037E+02 -0.33018122671E+03  0.41781931418E+03  0.12500000000E+03 0.  0.
</event>
<event>
 5    0  0.5626800E-005  0.2934248E+03  0.7546771E-02  0.1088574E+00
         21   -1    0    0  502  501  0.00000000000E+00  0.00000000000E+00  0.38402821820E+02  0.38402821820E+02  0.00000000000E+00 0. -1.
         21   -1    0    0  501  502 -0.00000000000E+00 -0.00000000000E+00 -0.22419731936E+04  0.22419731936E+04  0.00000000000E+00 0. -1.
         25    1    1    2    0    0  0.41738503502E+02 -0.35157839893E+02 -0.27986338835E+03  0.31133051974E+03  0.12500000000E+03 0.  0.
         25    1    1    2    0    0 -0.20442655766E+02 -0.48956844354E+02 -0.16524841874E+04  0.16580541802E+04  0.12500000000E+03 0.  0.
         25    1    1    2    0    0 -0.21295847737E+02  0.84114684247E+02 -0.27122279603E+03  0.31099131551E+03  0.12500000000E+03 0.  0.
</event>
<event>
 5    0  0.5626800E-005  0.3004523E+03  0.7546771E-02  0.1085015E+00
         21   -1    0    0  502  501  0.00000000000E+00  0.00000000000E+00  0.34484350822E+03  0.34484350822E+03  0.00000000000E+00 0. -1.
         21   -1    0    0  501  502 -0.00000000000E+00 -0.00000000000E+00 -0.26177557614E+03  0.26177557614E+03  0.00000000000E+00 0. -1.
         25    1    1    2    0    0  0.11617339944E+03 -0.36090307839E+02  0.59385513438E+02  0.18425636560E+03  0.12500000000E+03 0.  0.
         25    1    1    2    0    0 -0.16207740534E+03  0.13250300359E+03 -0.38004007178E+02  0.24677000596E+03  0.12500000000E+03 0.  0.
         25    1    1    2    0    0  0.45904005904E+02 -0.96412695749E+02  0.61686425816E+02  0.17559271280E+03  0.12500000000E+03 0.  0.
</event>
<event>
 5    0  0.5626800E-005  0.2027159E+03  0.7546771E-02  0.1147468E+00
         21   -1    0    0  502  501  0.00000000000E+00  0.00000000000E+00  0.24465294067E+03  0.24465294067E+03  0.00000000000E+00 0.  1.
         21   -1    0    0  501  502 -0.00000000000E+00 -0.00000000000E+00 -0.16796746131E+03  0.16796746131E+03  0.00000000000E+00 0.  1.
         25    1    1    2    0    0  0.30723994939E+02  0.13277832097E+02 -0.86112703284E+01  0.12968970147E+03  0.12500000000E+03 0.  0.
         25    1    1    2    0    0 -0.60005982522E+02 -0.47534755796E+01  0.25560109553E+02  0.14107314652E+03  0.12500000000E+03 0.  0.
         25    1    1    2    0    0  0.29281987583E+02 -0.85243565171E+01  0.59736640130E+02  0.14185755399E+03  0.12500000000E+03 0.  0.
</event>
<event>
 5    0  0.5626800E-005  0.4801753E+03  0.7546771E-02  0.1019087E+00
         21   -1    0    0  502  501  0.00000000000E+00  0.00000000000E+00  0.17494819854E+04  0.17494819854E+04  0.00000000000E+00 0.  1.
         21   -1    0    0  501  502 -0.00000000000E+00 -0.00000000000E+00 -0.13179233412E+03  0.13179233412E+03  0.00000000000E+00 0.  1.
         25    1    1    2    0    0  0.10457815304E+03  0.16990557355E+03  0.30121640394E+02  0.23735375969E+03  0.12500000000E+03 0.  0.
         25    1    1    2    0    0  0.17262736694E+02 -0.21238464992E+03  0.93028394155E+03  0.96252711832E+03  0.12500000000E+03 0.  0.
         25    1    1    2    0    0 -0.12184088974E+03  0.42479076367E+02  0.65728406937E+03  0.68139344155E+03  0.12500000000E+03 0.  0.
</event>
<event>
 5    0  0.5626800E-005  0.4446011E+03  0.7546771E-02  0.1029344E+00
         21   -1    0    0  502  501  0.00000000000E+00  0.00000000000E+00  0.13639477597E+03  0.13639477597E+03  0.00000000000E+00 0.  1.
         21   -1    0    0  501  502 -0.00000000000E+00 -0.00000000000E+00 -0.14492502493E+04  0.14492502493E+04  0.00000000000E+00 0.  1.
         25    1    1    2    0    0 -0.44680237358E+02 -0.15127393439E+02 -0.92890802618E+02  0.16272327078E+03  0.12500000000E+03 0.  0.
         25    1    1    2    0    0  0.19195509414E+03  0.13005676849E+02 -0.12077542493E+04  0.12293539899E+04  0.12500000000E+03 0.  0.
         25    1    1    2    0    0 -0.14727485678E+03  0.21217165899E+01 -0.12210421476E+02  0.19356776466E+03  0.12500000000E+03 0.  0.
</event>
<event>
 5    0  0.5626800E-005  0.3288841E+03  0.7546771E-02  0.1071632E+00
         21   -1    0    0  502  501  0.00000000000E+00  0.00000000000E+00  0.94960563284E+03  0.94960563284E+03  0.00000000000E+00 0. -1.
         21   -1    0    0  501  502 -0.00000000000E+00 -0.00000000000E+00 -0.11390488545E+03  0.11390488545E+03  0.00000000000E+00 0. -1.
         25    1    1    2    0    0  0.54460216171E+02 -0.38215356016E+02  0.25886564912E+03  0.29506398098E+03  0.12500000000E+03 0.  0.
         25    1    1    2    0    0 -0.13531076888E+03 -0.87493262120E+02  0.54702336487E+02  0.21114312849E+03  0.12500000000E+03 0.  0.
         25    1    1    2    0    0  0.80850552708E+02  0.12570861814E+03  0.52213276179E+03  0.55730340881E+03  0.12500000000E+03 0.  0.
</event>
<event>
 5    0  0.5907239E-005  0.2964074E+03  0.7546771E-02  0.1087050E+00
         21   -1    0    0  502  501  0.00000000000E+00  0.00000000000E+00  0.20951074690E+03  0.20951074690E+03  0.00000000000E+00 0.  1.
         21   -1    0    0  501  502 -0.00000000000E+00 -0.00000000000E+00 -0.41934541922E+03  0.41934541922E+03  0.00000000000E+00 0.  1.
         25    1    1    2    0    0  0.97269356152E+02  0.47483362223E+02 -0.54052256109E+02  0.17396161566E+03  0.12500000000E+03 0.  0.
         25    1    1    2    0    0  0.98775311403E+02 -0.30163922403E+02 -0.15119400595E+03  0.22170036489E+03  0.12500000000E+03 0.  0.
         25    1    1    2    0    0 -0.19604466756E+03 -0.17319439820E+02 -0.45884102583E+01  0.23319418556E+03  0.12500000000E+03 0.  0.
</event>
<event>
 5    0  0.6670172E-005  0.4833597E+03  0.7546771E-02  0.1018216E+00
         21   -1    0    0  502  501  0.00000000000E+00  0.00000000000E+00  0.42137607942E+03  0.42137607942E+03  0.00000000000E+00 0.  1.
         21   -1    0    0  501  502 -0.00000000000E+00 -0.00000000000E+00 -0.55446095713E+03  0.55446095713E+03  0.00000000000E+00 0.  1.
         25    1    1    2    0    0 -0.16660693903E+01  0.70852708391E+01  0.21273922480E+03  0.24685209057E+03  0.12500000000E+03 0.  0.
         25    1    1    2    0    0 -0.59013484597E+02 -0.27746198764E+03 -0.68425312819E+02  0.31745042035E+03  0.12500000000E+03 0.  0.
         25    1    1    2    0    0  0.60679553988E+02  0.27037671680E+03 -0.27739878969E+03  0.41153452563E+03  0.12500000000E+03 0.  0.
</event>
<event>
 5    0  0.5626800E-005  0.2194261E+03  0.7546771E-02  0.1134312E+00
         21   -1    0    0  502  501  0.00000000000E+00  0.00000000000E+00  0.51210416295E+02  0.51210416295E+02  0.00000000000E+00 0.  1.
         21   -1    0    0  501  502 -0.00000000000E+00 -0.00000000000E+00 -0.94019532151E+03  0.94019532151E+03  0.00000000000E+00 0.  1.
         25    1    1    2    0    0 -0.34044208334E+02 -0.62318643500E+02 -0.26518844877E+03  0.30164968889E+03  0.12500000000E+03 0.  0.
         25    1    1    2    0    0  0.65135754002E+02  0.28933393217E+02 -0.20597808602E+03  0.25126038210E+03  0.12500000000E+03 0.  0.
         25    1    1    2    0    0 -0.31091545668E+02  0.33385250284E+02 -0.41781837042E+03  0.43849566681E+03  0.12500000000E+03 0.  0.
</event>
<event>
 5    0  0.5626800E-005  0.5492481E+03  0.7546771E-02  0.1001668E+00
         21   -1    0    0  502  501  0.00000000000E+00  0.00000000000E+00  0.84650798398E+03  0.84650798398E+03  0.00000000000E+00 0.  1.
         21   -1    0    0  501  502 -0.00000000000E+00 -0.00000000000E+00 -0.35637405336E+03  0.35637405336E+03  0.00000000000E+00 0.  1.
         25    1    1    2    0    0 -0.24765590310E+03  0.10290449140E+03  0.27805444303E+03  0.40603208491E+03  0.12500000000E+03 0.  0.
         25    1    1    2    0    0  0.46390983114E+03 -0.16733815427E+03  0.16323542749E+03  0.53430814526E+03  0.12500000000E+03 0.  0.
         25    1    1    2    0    0 -0.21625392804E+03  0.64433662862E+02  0.48844060101E+02  0.26254180716E+03  0.12500000000E+03 0.  0.
</event>
<event>
 5    0  0.5626800E-005  0.3722108E+03  0.7546771E-02  0.1053851E+00
         21   -1    0    0  502  501  0.00000000000E+00  0.00000000000E+00  0.15758180932E+03  0.15758180932E+03  0.00000000000E+00 0. -1.
         21   -1    0    0  501  502 -0.00000000000E+00 -0.00000000000E+00 -0.87916776598E+03  0.87916776598E+03  0.00000000000E+00 0. -1.
         25    1    1    2    0    0  0.33974089767E+02 -0.93528182912E+02 -0.99711807260E+02  0.18833269573E+03  0.12500000000E+03 0.  0.
         25    1    1    2    0    0 -0.24981356732E+03 -0.24166597634E+02 -0.42658057112E+03  0.51047705778E+03  0.12500000000E+03 0.  0.
         25    1    1    2    0    0  0.21583947756E+03  0.11769478055E+03 -0.19529357828E+03  0.33793982180E+03  0.12500000000E+03 0.  0.
</event>
<event>
 5    0  0.5626800E-005  0.3307756E+03  0.7546771E-02  0.1070794E+00
         21   -1    0    0  502  501  0.00000000000E+00  0.00000000000E+00  0.14608083034E+03  0.14608083034E+03  0.00000000000E+00 0.  1.
         21   -1    0    0  501  502 -0.00000000000E+00 -0.00000000000E+00 -0.74898620466E+03  0.74898620466E+03  0.00000000000E+00 0.  1.
         25    1    1    2    0    0  0.27182678701E+02 -0.50815249684E+02 -0.20322184772E+03  0.24544899066E+03  0.12500000000E+03 0.  0.
         25    1    1    2    0    0  0.71281063741E+02  0.19552959882E+03 -0.64217123993E+02  0.25112079380E+03  0.12500000000E+03 0.  0.
         25    1    1    2    0    0 -0.98463742443E+02 -0.14471434914E+03 -0.33546640259E+03  0.39849725055E+03  0.12500000000E+03 0.  0.
</event>
<event>
 5    0  0.5626800E-005  0.2601077E+03  0.7546771E-02  0.1107079E+00
         21   -1    0    0  502  501  0.00000000000E+00  0.00000000000E+00  0.57984639144E+02  0.57984639144E+02  0.00000000000E+00 0. -1.
         21   -1    0    0  501  502 -0.00000000000E+00 -0.00000000000E+00 -0.11667923429E+04  0.11667923429E+04  0.00000000000E+00 0. -1.
         25    1    1    2    0    0 -0.10882284147E+03  0.54739024037E+02 -0.30650685076E+03  0.35271833117E+03  0.12500000000E+03 0.  0.
         25    1    1    2    0    0 -0.31438056035E+01 -0.35717044607E+02 -0.15129001007E+03  0.19949751361E+03  0.12500000000E+03 0.  0.
         25    1    1    2    0    0  0.11196664707E+03 -0.19021979430E+02 -0.65101084297E+03  0.67256113731E+03  0.12500000000E+03 0.  0.
</event>
<event>
 5    0  0.5626800E-005  0.3153648E+03  0.7546771E-02  0.1077803E+00
         21   -1    0    0  502  501  0.00000000000E+00  0.00000000000E+00  0.23230425932E+03  0.23230425932E+03  0.00000000000E+00 0.  1.
         21   -1    0    0  501  502 -0.00000000000E+00 -0.00000000000E+00 -0.42812376828E+03  0.42812376828E+03  0.00000000000E+00 0.  1.
         25    1    1    2    0    0  0.11836031479E+03 -0.12424252166E+03  0.88796756334E+01  0.21248345099E+03  0.12500000000E+03 0.  0.
         25    1    1    2    0    0  0.71895009493E+02  0.24130369494E+02 -0.47446874408E+02  0.15371198071E+03  0.12500000000E+03 0.  0.
         25    1    1    2    0    0 -0.19025532429E+03  0.10011215217E+03 -0.15725231018E+03  0.29423259590E+03  0.12500000000E+03 0.  0.
</event>
<event>
 5    0  0.5626800E-005  0.2758877E+03  0.7546771E-02  0.1097956E+00
         21   -1    0    0  502  501  0.00000000000E+00  0.00000000000E+00  0.56022590799E+03  0.56022590799E+03  0.00000000000E+00 0. -1.
         21   -1    0    0  501  502 -0.00000000000E+00 -0.00000000000E+00 -0.13586305131E+03  0.13586305131E+03  0.00000000000E+00 0. -1.
         25    1    1    2    0    0  0.15385854142E+03 -0.21973342459E+02  0.22958542583E+03  0.30412126907E+03  0.12500000000E+03 0.  0.
         25    1    1    2    0    0 -0.15096311923E+03 -0.40625654574E+02  0.12049463735E+03  0.23363275628E+03  0.12500000000E+03 0.  0.
         25    1    1    2    0    0 -0.28954221889E+01  0.62598997033E+02  0.74282793497E+02  0.15833493395E+03  0.12500000000E+03 0.  0.
</event>
<event>
 5    0  0.5626800E-005  0.2222743E+03  0.7546771E-02  0.1132199E+00
         21   -1    0    0  502  501  0.00000000000E+00  0.00000000000E+00  0.61854195841E+03  0.61854195841E+03  0.00000000000E+00 0.  1.
         21   -1    0    0  501  502 -0.00000000000E+00 -0.00000000000E+00 -0.79874736333E+02  0.79874736333E+02  0.00000000000E+00 0.  1.
         25    1    1    2    0    0  0.51568222576E+01  0.91079657070E+02  0.25156311509E+03  0.29534911143E+03  0.12500000000E+03 0.  0.
         25    1    1    2    0    0 -0.13988161508E+02 -0.10852625157E+02  0.85394260775E+02  0.15241596999E+03  0.12500000000E+03 0.  0.
         25    1    1    2    0    0  0.88313392501E+01 -0.80227031913E+02  0.20170984621E+03  0.25065161332E+03  0.12500000000E+03 0.  0.
</event>
<event>
 5    0  0.5626800E-005  0.2647018E+03  0.7546771E-02  0.1104351E+00
         21   -1    0    0  502  501  0.00000000000E+00  0.00000000000E+00  0.22039414247E+03  0.22039414247E+03  0.00000000000E+00 0.  1.
         21   -1    0    0  501  502 -0.00000000000E+00 -0.00000000000E+00 -0.31791700753E+03  0.31791700753E+03  0.00000000000E+00 0.  1.
         25    1    1    2    0    0  0.11556666130E+03 -0.20495278268E+02 -0.79881787357E+02  0.18916080352E+03  0.12500000000E+03 0.  0.
         25    1    1    2    0    0 -0.25755808903E+02  0.10092125715E+03  0.37442788136E+02  0.16695934901E+03  0.12500000000E+03 0.  0.
         25    1    1    2    0    0 -0.89810852399E+02 -0.80425978884E+02 -0.55083865839E+02  0.18219099748E+03  0.12500000000E+03 0.  0.
</event>
<event>
 5    0  0.5626800E-005  0.3796630E+03  0.7546771E-02  0.1051058E+00
         21   -1    0    0  502  501  0.00000000000E+00  0.00000000000E+00  0.12187959556E+04  0.12187959556E+04  0.00000000000E+00 0.  1.
         21   -1    0    0  501  502 -0.00000000000E+00 -0.00000000000E+00 -0.11826754809E+03  0.11826754809E+03  0.00000000000E+00 0.  1.
         25    1    1    2    0    0  0.10009964918E+03 -0.72612467131E+02  0.69149608678E+03  0.71350147035E+03  0.12500000000E+03 0.  0.
         25    1    1    2    0    0  0.43948053637E+02  0.20077235414E+03  0.22079462825E+03  0.32652141961E+03  0.12500000000E+03 0.  0.
         25    1    1    2    0    0 -0.14404770282E+03 -0.12815988700E+03  0.18823769246E+03  0.29704061370E+03  0.12500000000E+03 0.  0.
</event>
<event>
 5    0  0.5626800E-005  0.3086972E+03  0.7546771E-02  0.1080972E+00
         21   -1    0    0  502  501  0.00000000000E+00  0.00000000000E+00  0.24740603192E+03  0.24740603192E+03  0.00000000000E+00 0.  1.
         21   -1    0    0  501  502 -0.00000000000E+00 -0.00000000000E+00 -0.38517230996E+03  0.38517230996E+03  0.00000000000E+00 0.  1.
         25    1    1    2    0    0 -0.11294744058E+03 -0.27866420076E+02  0.20579918554E+02  0.17199475210E+03  0.12500000000E+03 0.  0.
         25    1    1    2    0    0 -0.34407609732E+02 -0.12527899535E+03 -0.10389764574E+03  0.20808275054E+03  0.12500000000E+03 0.  0.
         25    1    1    2    0    0  0.14735505032E+03  0.15314541543E+03 -0.54448550858E+02  0.25250083923E+03  0.12500000000E+03 0.  0.
</event>
<event>
 5    0  0.5626800E-005  0.2907941E+03  0.7546771E-02  0.1089935E+00
         21   -1    0    0  502  501  0.00000000000E+00  0.00000000000E+00  0.17614258074E+04  0.17614258074E+04  0.00000000000E+00 0. -1.
         21   -1    0    0  501  502 -0.00000000000E+00 -0.00000000000E+00 -0.48007265656E+02  0.48007265656E+02  0.00000000000E+00 0. -1.
         25    1    1    2    0    0  0.92226996019E+02 -0.15604155783E+02  0.12781134545E+04  0.12876134167E+04  0.12500000000E+03 0.  0.
         25    1    1    2    0    0 -0.62370870582E+02  0.79168876687E+01  0.13216095780E+03  0.19246901406E+03  0.12500000000E+03 0.  0.
         25    1    1    2    0    0 -0.29856125437E+02  0.76872681142E+01  0.30314412948E+03  0.32935064226E+03  0.12500000000E+03 0.  0.
</event>
<event>
 5    0  0.5626800E-005  0.3204575E+03  0.7546771E-02  0.1075439E+00
         21   -1    0    0  502  501  0.00000000000E+00  0.00000000000E+00  0.50464393939E+02  0.50464393939E+02  0.00000000000E+00 0. -1.
         21   -1    0    0  501  502 -0.00000000000E+00 -0.00000000000E+00 -0.20349596503E+04  0.20349596503E+04  0.00000000000E+00 0. -1.
         25    1    1    2    0    0  0.36770438442E+02 -0.57863071129E+02 -0.62256211196E+03  0.63867737034E+03  0.12500000000E+03 0.  0.
         25    1    1    2    0    0  0.62582473957E+02 -0.11732968425E+03 -0.98286725918E+03  0.99966787986E+03  0.12500000000E+03 0.  0.
         25    1    1    2    0    0 -0.99352912399E+02  0.17519275538E+03 -0.37906588524E+03  0.44707879405E+03  0.12500000000E+03 0.  0.
</event>
<event>
 5    0  0.5626800E-005  0.2980122E+03  0.7546771E-02  0.1086239E+00
         21   -1    0    0  502  501  0.00000000000E+00  0.00000000000E+00  0.30815800651E+03  0.30815800651E+03  0.00000000000E+00 0.  1.
         21   -1    0    0  501  502 -0.00000000000E+00 -0.00000000000E+00 -0.28820035843E+03  0.28820035843E+03  0.00000000000E+00 0.  1.
         25    1    1    2    0    0  0.10985911077E+03  0.39989658882E+02  0.18446353493E+03  0.25163464140E+03  0.12500000000E+03 0.  0.
         25    1    1    2    0    0 -0.20147403852E+00 -0.52466213016E+02 -0.62794708957E+02  0.14940187272E+03  0.12500000000E+03 0.  0.
         25    1    1    2    0    0 -0.10965763673E+03  0.12476554135E+02 -0.10171117789E+03  0.19532185081E+03  0.12500000000E+03 0.  0.
</event>
<event>
 5    0  0.5626800E-005  0.2374551E+03  0.7546771E-02  0.1121500E+00
         21   -1    0    0  502  501  0.00000000000E+00  0.00000000000E+00  0.21807271971E+03  0.21807271971E+03  0.00000000000E+00 0.  1.
         21   -1    0    0  501  502 -0.00000000000E+00 -0.00000000000E+00 -0.25856011084E+03  0.25856011084E+03  0.00000000000E+00 0.  1.
         25    1    1    2    0    0 -0.34562929198E+02  0.11552048675E+03  0.48403088140E+02  0.18029819155E+03  0.12500000000E+03 0.  0.
         25    1    1    2    0    0  0.14853550143E+02 -0.28490011629E+02 -0.38044304741E+02  0.13455362439E+03  0.12500000000E+03 0.  0.
         25    1    1    2    0    0  0.19709379055E+02 -0.87030475124E+02 -0.50846174526E+02  0.16178101461E+03  0.12500000000E+03 0.  0.
</event>
<event>
 5    0  0.5626800E-005  0.2263721E+03  0.7546771E-02  0.1129220E+00
         21   -1    0    0  502  501  0.00000000000E+00  0.00000000000E+00  0.24753263092E+03  0.24753263092E+03  0.00000000000E+00 0.  1.
         21   -1    0    0  501  502 -0.00000000000E+00 -0.00000000000E+00 -0.20702050213E+03  0.20702050213E+03  0.00000000000E+00 0.  1.
         25    1    1    2    0    0  0.11267268746E+02 -0.29830801722E+02 -0.28931834762E+02  0.13220771210E+03  0.12500000000E+03 0.  0.
         25    1    1    2    0    0  0.67944397196E+01  0.41369024055E+00 -0.60260261998E+02  0.13893392216E+03  0.12500000000E+03 0.  0.
         25    1    1    2    0    0 -0.18061708465E+02  0.29417111481E+02  0.12970422556E+03  0.18341149879E+03  0.12500000000E+03 0.  0.
</event>
<event>
 5    0  0.5626800E-005  0.2517896E+03  0.7546771E-02  0.1112179E+00
         21   -1    0    0  502  501  0.00000000000E+00  0.00000000000E+00  0.26470689924E+03  0.26470689924E+03  0.00000000000E+00 0. -1.
         21   -1    0    0  501  502 -0.00000000000E+00 -0.00000000000E+00 -0.23950259097E+03  0.23950259097E+03  0.00000000000E+00 0. -1.
         25    1    1    2    0    0 -0.86920291445E+01 -0.37996525923E+02 -0.16157249488E+02  0.13192931465E+03  0.12500000000E+03 0.  0.
         25    1    1    2    0    0  0.29701820383E+01  0.10818089597E+03 -0.80635364241E+02  0.18395377191E+03  0.12500000000E+03 0.  0.
         25    1    1    2    0    0  0.57218471063E+01 -0.70184370042E+02  0.12199692200E+03  0.18832640364E+03  0.12500000000E+03 0.  0.
</event>
<event>
 5    0  0.5626800E-005  0.2817295E+03  0.7546771E-02  0.1094748E+00
         21   -1    0    0  502  501  0.00000000000E+00  0.00000000000E+00  0.25176470030E+03  0.25176470030E+03  0.00000000000E+00 0.  1.
         21   -1    0    0  501  502 -0.00000000000E+00 -0.00000000000E+00 -0.31526067050E+03  0.31526067050E+03  0.00000000000E+00 0.  1.
         25    1    1    2    0    0 -0.11631186071E+03  0.10500561218E+03 -0.39146741225E+01  0.20048678810E+03  0.12500000000E+03 0.  0.
         25    1    1    2    0    0 -0.43337391579E+02 -0.20476105125E+02 -0.60377222455E+02  0.14685982903E+03  0.12500000000E+03 0.  0.
         25    1    1    2    0    0  0.15964925228E+03 -0.84529507057E+02  0.79592638085E+00  0.21967875368E+03  0.12500000000E+03 0.  0.
</event>
<event>
 5    0  0.5626800E-005  0.2717047E+03  0.7546771E-02  0.1100308E+00
         21   -1    0    0  502  501  0.00000000000E+00  0.00000000000E+00  0.21324834067E+03  0.21324834067E+03  0.00000000000E+00 0.  1.
         21   -1    0    0  501  502 -0.00000000000E+00 -0.00000000000E+00 -0.34618531465E+03  0.34618531465E+03  0.00000000000E+00 0.  1.
         25    1    1    2    0    0  0.55451526967E+02 -0.10401802302E+03 -0.38344330413E+02  0.17603950872E+03  0.12500000000E+03 0.  0.
         25    1    1    2    0    0  0.10011068824E+02  0.79036562532E+02 -0.16662041733E+03  0.22301202476E+03  0.12500000000E+03 0.  0.
         25    1    1    2    0    0 -0.65462595790E+02  0.24981460491E+02  0.72027773759E+02  0.16038212185E+03  0.12500000000E+03 0.  0.
</event>
<event>
 5    0  0.5626800E-005  0.3043611E+03  0.7546771E-02  0.1083081E+00
         21   -1    0    0  502  501  0.00000000000E+00  0.00000000000E+00  0.25136269530E+04  0.25136269530E+04  0.00000000000E+00 0.  1.
         21   -1    0    0  501  502 -0.00000000000E+00 -0.00000000000E+00 -0.36853382304E+02  0.36853382304E+02  0.00000000000E+00 0.  1.
         25    1    1    2    0    0 -0.12838054327E+03 -0.11135869765E+03  0.10210551340E+04  0.10426221320E+04  0.12500000000E+03 0.  0.
         25    1    1    2    0    0  0.71187003097E+02  0.16979960372E+03  0.61617881563E+03  0.65513420584E+03  0.12500000000E+03 0.  0.
         25    1    1    2    0    0  0.57193540170E+02 -0.58440906072E+02  0.83953962101E+03  0.85272399742E+03  0.12500000000E+03 0.  0.
</event>
<event>
 5    0  0.5626800E-005  0.2362738E+03  0.7546771E-02  0.1122300E+00
         21   -1    0    0  502  501  0.00000000000E+00  0.00000000000E+00  0.12642498619E+04  0.12642498619E+04  0.00000000000E+00 0. -1.
         21   -1    0    0  501  502 -0.00000000000E+00 -0.00000000000E+00 -0.44156880816E+02  0.44156880816E+02  0.00000000000E+00 0. -1.
         25    1    1    2    0    0  0.65079201680E+01 -0.28275507504E+02  0.38384740701E+03  0.40472915539E+03  0.12500000000E+03 0.  0.
         25    1    1    2    0    0  0.73862988823E+02 -0.57877593389E+02  0.27030551928E+03  0.31224290334E+03  0.12500000000E+03 0.  0.
         25    1    1    2    0    0 -0.80370908991E+02  0.86153100893E+02  0.56594005479E+03  0.59143468399E+03  0.12500000000E+03 0.  0.
</event>
<event>
 5    0  0.5626800E-005  0.2710955E+03  0.7546771E-02  0.1100654E+00
         21   -1    0    0  502  501  0.00000000000E+00  0.00000000000E+00  0.99901089313E+02  0.99901089313E+02  0.00000000000E+00 0. -1.
         21   -1    0    0  501  502 -0.00000000000E+00 -0.00000000000E+00 -0.73565528126E+03  0.73565528126E+03  0.00000000000E+00 0. -1.
         25    1    1    2    0    0 -0.99436483079E+02 -0.52177120065E+02 -0.30273521115E+03  0.34624221882E+03  0.12500000000E+03 0.  0.
         25    1    1    2    0    0 -0.51570339351E+02 -0.25962263231E+02 -0.18894801737E+03  0.23379455144E+03  0.12500000000E+03 0.  0.
         25    1    1    2    0    0  0.15100682243E+03  0.78139383296E+02 -0.14407096343E+03  0.25551960032E+03  0.12500000000E+03 0.  0.
</event>
<event>
 5    0  0.5626800E-005  0.2589272E+03  0.7546771E-02  0.1107790E+00
         21   -1    0    0  502  501  0.00000000000E+00  0.00000000000E+00  0.49491906037E+02  0.49491906037E+02  0.00000000000E+00 0. -1.
         21   -1    0    0  501  502 -0.00000000000E+00 -0.00000000000E+00 -0.13546311494E+04  0.13546311494E+04  0.00000000000E+00 0. -1.
         25    1    1    2    0    0 -0.48846573080E+02  0.12338331205E+02 -0.59977294417E+03  0.61472823806E+03  0.12500000000E+03 0.  0.
         25    1    1    2    0    0  0.23835027829E+02 -0.10007602312E+03 -0.53627582014E+03  0.56017860921E+03  0.12500000000E+03 0.  0.
         25    1    1    2    0    0  0.25011545251E+02  0.87737691918E+02 -0.16909047909E+03  0.22921620819E+03  0.12500000000E+03 0.  0.
</event>
<event>
 5    0  0.5626800E-005  0.3768908E+03  0.7546771E-02  0.1052089E+00
         21   -1    0    0  502  501  0.00000000000E+00  0.00000000000E+00  0.49394767570E+03  0.49394767570E+03  0.00000000000E+00 0.  1.
         21   -1    0    0  501  502 -0.00000000000E+00 -0.00000000000E+00 -0.28757441032E+03  0.28757441032E+03  0.00000000000E+00 0.  1.
         25    1    1    2    0    0 -0.22850394639E+03  0.17634886580E+02  0.27056211123E+03  0.37597060892E+03  0.12500000000E+03 0.  0.
         25    1    1    2    0    0  0.12079116475E+03  0.11732861596E+02 -0.13816009310E+03  0.22235416985E+03  0.12500000000E+03 0.  0.
         25    1    1    2    0    0  0.10771278164E+03 -0.29367748175E+02  0.73971247253E+02  0.18319730725E+03  0.12500000000E+03 0.  0.
</event>
<event>
 5    0  0.5626800E-005  0.3551062E+03  0.7546771E-02  0.1060539E+00
         21   -1    0    0  502  501  0.00000000000E+00  0.00000000000E+00  0.17132671716E+03  0.17132671716E+03  0.00000000000E+00 0.  1.
         21   -1    0    0  501  502 -0.00000000000E+00 -0.00000000000E+00 -0.73602308069E+03  0.73602308069E+03  0.00000000000E+00 0. -1.
         25    1    1    2    0    0 -0.43769789790E+02 -0.16958042245E+03 -0.20222207448E+03  0.29528305333E+03  0.12500000000E+03 0.  0.
         25    1    1    2    0    0  0.47738123967E+02 -0.94138250141E+02 -0.25104522262E+03  0.29964919893E+03  0.12500000000E+03 0.  0.
         25    1    1    2    0    0 -0.39683341766E+01  0.26371867259E+03 -0.11142906644E+03  0.31241754559E+03  0.12500000000E+03 0.  0.
</event>
<event>
 5    0  0.5626800E-005  0.3953686E+03  0.7546771E-02  0.1045395E+00
         21   -1    0    0  502  501  0.00000000000E+00  0.00000000000E+00  0.14453735526E+04  0.14453735526E+04  0.00000000000E+00 0. -1.
         21   -1    0    0  501  502 -0.00000000000E+00 -0.00000000000E+00 -0.10814944232E+03  0.10814944232E+03  0.00000000000E+00 0. -1.
         25    1    1    2    0    0  0.25068782271E+01  0.27932027769E+03  0.45912188581E+03  0.55176444974E+03  0.12500000000E+03 0.  0.
         25    1    1    2    0    0 -0.76771294500E+02  0.89728690896E-01  0.15700107264E+03  0.21486781174E+03  0.12500000000E+03 0.  0.
         25    1    1    2    0    0  0.74264416273E+02 -0.27941000638E+03  0.72110115185E+03  0.78689073345E+03  0.12500000000E+03 0.  0.
</event>
<event>
 5    0  0.5626800E-005  0.2513588E+03  0.7546771E-02  0.1112449E+00
         21   -1    0    0  502  501  0.00000000000E+00  0.00000000000E+00  0.33578233663E+03  0.33578233663E+03  0.00000000000E+00 0. -1.
         21   -1    0    0  501  502 -0.00000000000E+00 -0.00000000000E+00 -0.18816137859E+03  0.18816137859E+03  0.00000000000E+00 0. -1.
         25    1    1    2    0    0 -0.77106770652E+02 -0.45083861498E+02  0.58999592067E+02  0.16457205265E+03  0.12500000000E+03 0.  0.
         25    1    1    2    0    0  0.13686714747E+02 -0.28267648549E+02  0.14260143133E+03  0.19221486501E+03  0.12500000000E+03 0.  0.
         25    1    1    2    0    0  0.63420055904E+02  0.73351510047E+02 -0.53980065356E+02  0.16715679757E+03  0.12500000000E+03 0.  0.
</event>
<event>
 5    0  0.5626800E-005  0.4507191E+03  0.7546771E-02  0.1027508E+00
         21   -1    0    0  502  501  0.00000000000E+00  0.00000000000E+00  0.22079306742E+03  0.22079306742E+03  0.00000000000E+00 0.  1.
         21   -1    0    0  501  502 -0.00000000000E+00 -0.00000000000E+00 -0.92008174318E+03  0.92008174318E+03  0.00000000000E+00 0.  1.
         25    1    1    2    0    0  0.60721840637E+01  0.96085571814E+02 -0.80745325166E+02  0.17724027778E+03  0.12500000000E+03 0.  0.
         25    1    1    2    0    0 -0.14536815279E+03 -0.20701744255E+03  0.26008563958E+02  0.28335413667E+03  0.12500000000E+03 0.  0.
         25    1    1    2    0    0  0.13929596873E+03  0.11093187074E+03 -0.64455191455E+03  0.68028039616E+03  0.12500000000E+03 0.  0.
</event>
<event>
 5    0  0.5626800E-005  0.3738795E+03  0.7546771E-02  0.1053219E+00
         21   -1    0    0  502  501  0.00000000000E+00  0.00000000000E+00  0.15609572539E+04  0.15609572539E+04  0.00000000000E+00 0.  1.
         21   -1    0    0  501  502 -0.00000000000E+00 -0.00000000000E+00 -0.89551388806E+02  0.89551388806E+02  0.00000000000E+00 0.  1.
         25    1    1    2    0    0 -0.39362020386E+02  0.26681129683E+03  0.48921374871E+03  0.57244452019E+03  0.12500000000E+03 0.  0.
         25    1    1    2    0    0  0.12158058563E+03 -0.65333314826E+02  0.51675921104E+03  0.54928623050E+03  0.12500000000E+03 0.  0.
         25    1    1    2    0    0 -0.82218565242E+02 -0.20147798200E+03  0.46543290531E+03  0.52877789199E+03  0.12500000000E+03 0.  0.
</event>
<event>
 5    0  0.5626800E-005  0.4172147E+03  0.7546771E-02  0.1037977E+00
         21   -1    0    0  502  501  0.00000000000E+00  0.00000000000E+00  0.61559350340E+03  0.61559350340E+03  0.00000000000E+00 0. -1.
         21   -1    0    0  501  502 -0.00000000000E+00 -0.00000000000E+00 -0.28276463105E+03  0.28276463105E+03  0.00000000000E+00 0. -1.
         25    1    1    2    0    0 -0.12100558795E+02  0.57094346493E+02  0.19772560497E+03  0.24109459302E+03  0.12500000000E+03 0.  0.
         25    1    1    2    0    0 -0.22620667142E+03  0.89024568134E+02  0.20680853885E+03  0.34276756508E+03  0.12500000000E+03 0.  0.
         25    1    1    2    0    0  0.23830723022E+03 -0.14611891463E+03 -0.71705271466E+02  0.31449597635E+03  0.12500000000E+03 0.  0.
</event>
<event>
 5    0  0.5626800E-005  0.4618841E+03  0.7546771E-02  0.1024236E+00
         21   -1    0    0  502  501  0.00000000000E+00  0.00000000000E+00  0.46676795646E+03  0.46676795646E+03  0.00000000000E+00 0. -1.
         21   -1    0    0  501  502 -0.00000000000E+00 -0.00000000000E+00 -0.45705129052E+03  0.45705129052E+03  0.00000000000E+00 0. -1.
         25    1    1    2    0    0  0.16973307396E+03  0.23333101055E+03  0.92788265446E+02  0.32785261793E+03  0.12500000000E+03 0.  0.
         25    1    1    2    0    0  0.58039865330E+02 -0.69420099381E+02  0.14625377886E+03  0.21260983984E+03  0.12500000000E+03 0.  0.
         25    1    1    2    0    0 -0.22777293929E+03 -0.16391091117E+03 -0.22932537837E+03  0.38335678921E+03  0.12500000000E+03 0.  0.
</event>
<event>
 5    0  0.5626800E-005  0.2785709E+03  0.7546771E-02  0.1096472E+00
         21   -1    0    0  502  501  0.00000000000E+00  0.00000000000E+00  0.15078087421E+03  0.15078087421E+03  0.00000000000E+00 0. -1.
         21   -1    0    0  501  502 -0.00000000000E+00 -0.00000000000E+00 -0.51466584450E+03  0.51466584450E+03  0.00000000000E+00 0. -1.
         25    1    1    2    0    0  0.81249914815E+02  0.16815543952E+03 -0.23907655903E+03  0.32811644515E+03  0.12500000000E+03 0.  0.
         25    1    1    2    0    0 -0.26520901073E+02 -0.85981881773E+02 -0.57387411677E+02  0.16436105745E+03  0.12500000000E+03 0.  0.
         25    1    1    2    0    0 -0.54729013742E+02 -0.82173557749E+02 -0.67420999585E+02  0.17296921611E+03  0.12500000000E+03 0.  0.
</event>
<event>
 5    0  0.5626800E-005  0.2878533E+03  0.7546771E-02  0.1091475E+00
         21   -1    0    0  502  501  0.00000000000E+00  0.00000000000E+00  0.15147869940E+03  0.15147869940E+03  0.00000000000E+00 0.  1.
         21   -1    0    0  501  502 -0.00000000000E+00 -0.00000000000E+00 -0.54700444090E+03  0.54700444090E+03  0.00000000000E+00 0.  1.
         25    1    1    2    0    0  0.68310726025E+02  0.29329164438E+02  0.22451173437E+02  0.14715845326E+03  0.12500000000E+03 0.  0.
         25    1    1    2    0    0 -0.10616041138E+03  0.14096772838E+02 -0.37103073767E+03  0.40590338782E+03  0.12500000000E+03 0.  0.
         25    1    1    2    0    0  0.37849685355E+02 -0.43425937277E+02 -0.46946177269E+02  0.14542129923E+03  0.12500000000E+03 0.  0.
</event>
<event>
 5    0  0.5626800E-005  0.5906116E+03  0.7546771E-02  0.9925078E-01
         21   -1    0    0  502  501  0.00000000000E+00  0.00000000000E+00  0.56235000229E+03  0.56235000229E+03  0.00000000000E+00 0. -1.
         21   -1    0    0  501  502 -0.00000000000E+00 -0.00000000000E+00 -0.62029344830E+03  0.62029344830E+03  0.00000000000E+00 0. -1.
         25    1    1    2    0    0 -0.78802145153E+02 -0.32204911659E+01 -0.37734501940E+02  0.15254193614E+03  0.12500000000E+03 0.  0.
         25    1    1    2    0    0 -0.32414190515E+03 -0.28624379643E+03 -0.19341414883E+03  0.48993623936E+03  0.12500000000E+03 0.  0.
         25    1    1    2    0    0  0.40294405030E+03  0.28946428759E+03  0.17320520476E+03  0.54016527510E+03  0.12500000000E+03 0.  0.
</event>
<event>
 5    0  0.5626800E-005  0.2980407E+03  0.7546771E-02  0.1086224E+00
         21   -1    0    0  502  501  0.00000000000E+00  0.00000000000E+00  0.10691830727E+03  0.10691830727E+03  0.00000000000E+00 0.  1.
         21   -1    0    0  501  502 -0.00000000000E+00 -0.00000000000E+00 -0.83080478379E+03  0.83080478379E+03  0.00000000000E+00 0.  1.
         25    1    1    2    0    0  0.10094966015E+02  0.12576592289E+03 -0.22060608192E+03  0.28321549937E+03  0.12500000000E+03 0.  0.
         25    1    1    2    0    0  0.96521269805E+02  0.60816209283E+02 -0.22113289977E+03  0.27845955936E+03  0.12500000000E+03 0.  0.
         25    1    1    2    0    0 -0.10661623582E+03 -0.18658213218E+03 -0.28214749483E+03  0.37604803234E+03  0.12500000000E+03 0.  0.
</event>
<event>
 5    0  0.5626800E-005  0.3146576E+03  0.7546771E-02  0.1078135E+00
         21   -1    0    0  502  501  0.00000000000E+00  0.00000000000E+00  0.59272624889E+03  0.59272624889E+03  0.00000000000E+00 0.  1.
         21   -1    0    0  501  502 -0.00000000000E+00 -0.00000000000E+00 -0.16704070347E+03  0.16704070347E+03  0.00000000000E+00 0.  1.
         25    1    1    2    0    0  0.50049144001E+01  0.12260398124E+03  0.23515337329E+03  0.29322157894E+03  0.12500000000E+03 0.  0.
         25    1    1    2    0    0 -0.25190360681E+02  0.50985051649E+02 -0.48033181868E+02  0.14548613791E+03  0.12500000000E+03 0.  0.
         25    1    1    2    0    0  0.20185446281E+02 -0.17358903289E+03  0.23856535399E+03  0.32105923551E+03  0.12500000000E+03 0.  0.
</event>
<event>
 5    0  0.5626800E-005  0.2838065E+03  0.7546771E-02  0.1093628E+00
         21   -1    0    0  502  501  0.00000000000E+00  0.00000000000E+00  0.68395259961E+02  0.68395259961E+02  0.00000000000E+00 0. -1.
         21   -1    0    0  501  502 -0.00000000000E+00 -0.00000000000E+00 -0.11776568129E+04  0.11776568129E+04  0.00000000000E+00 0. -1.
         25    1    1    2    0    0 -0.15330021768E+03 -0.21909275849E+02 -0.40448196343E+03  0.45079000859E+03  0.12500000000E+03 0.  0.
         25    1    1    2    0    0  0.82703625987E+02 -0.56280162999E+02 -0.15944575752E+03  0.22595419025E+03  0.12500000000E+03 0.  0.
         25    1    1    2    0    0  0.70596591695E+02  0.78189438848E+02 -0.54533383195E+03  0.56930787398E+03  0.12500000000E+03 0.  0.
</event>
<event>
 5    0  0.5626800E-005  0.2871873E+03  0.7546771E-02  0.1091827E+00
         21   -1    0    0  502  501  0.00000000000E+00  0.00000000000E+00  0.13957851957E+03  0.13957851957E+03  0.00000000000E+00 0.  1.
         21   -1    0    0  501  502 -0.00000000000E+00 -0.00000000000E+00 -0.59089730686E+03  0.59089730686E+03  0.00000000000E+00 0.  1.
         25    1    1    2    0    0  0.13783958785E+03  0.12181517847E+03 -0.10568310469E+03  0.24623689468E+03  0.12500000000E+03 0.  0.
         25    1    1    2    0    0 -0.62130059242E+01 -0.39161271110E+02 -0.19182441119E+03  0.23236568448E+03  0.12500000000E+03 0.  0.
         25    1    1    2    0    0 -0.13162658193E+03 -0.82653907359E+02 -0.15381127141E+03  0.25187324726E+03  0.12500000000E+03 0.  0.
</event>
<event>
 5    0  0.5626800E-005  0.2883799E+03  0.7546771E-02  0.1091198E+00
         21   -1    0    0  502  501  0.00000000000E+00  0.00000000000E+00  0.36287827369E+03  0.36287827369E+03  0.00000000000E+00 0.  1.
         21   -1    0    0  501  502 -0.00000000000E+00 -0.00000000000E+00 -0.22917599824E+03  0.22917599824E+03  0.00000000000E+00 0.  1.
         25    1    1    2    0    0  0.18137227110E+02  0.91536280604E+02  0.17027349069E+03  0.23092403796E+03  0.12500000000E+03 0.  0.
         25    1    1    2    0    0 -0.17088191708E+02 -0.11611465499E+02  0.98503662552E+02  0.16048303326E+03  0.12500000000E+03 0.  0.
         25    1    1    2    0    0 -0.10490354017E+01 -0.79924815105E+02 -0.13507487779E+03  0.20064720072E+03  0.12500000000E+03 0.  0.
</event>
<event>
 5    0  0.5626800E-005  0.3375662E+03  0.7546771E-02  0.1067837E+00
         21   -1    0    0  502  501  0.00000000000E+00  0.00000000000E+00  0.15695077774E+03  0.15695077774E+03  0.00000000000E+00 0. -1.
         21   -1    0    0  501  502 -0.00000000000E+00 -0.00000000000E+00 -0.72602959927E+03  0.72602959927E+03  0.00000000000E+00 0. -1.
         25    1    1    2    0    0  0.17041308606E+03 -0.28129195952E+02 -0.33723899222E+02  0.21585683437E+03  0.12500000000E+03 0.  0.
         25    1    1    2    0    0  0.13680192378E+02  0.96116604356E+02 -0.15689090335E+03  0.22285714000E+03  0.12500000000E+03 0.  0.
         25    1    1    2    0    0 -0.18409327844E+03 -0.67987408405E+02 -0.37846401896E+03  0.44426640264E+03  0.12500000000E+03 0.  0.
</event>
<event>
 5    0  0.5626800E-005  0.2671553E+03  0.7546771E-02  0.1102919E+00
         21   -1    0    0  502  501  0.00000000000E+00  0.00000000000E+00  0.36231797862E+03  0.36231797862E+03  0.00000000000E+00 0. -1.
         21   -1    0    0  501  502 -0.00000000000E+00 -0.00000000000E+00 -0.19698707894E+03  0.19698707894E+03  0.00000000000E+00 0. -1.
         25    1    1    2    0    0  0.25940718373E+02  0.56785527180E+02  0.48405385180E+02  0.14787020755E+03  0.12500000000E+03 0.  0.
         25    1    1    2    0    0 -0.15055488187E+03  0.29681832916E+02  0.57794619760E+02  0.20618681270E+03  0.12500000000E+03 0.  0.
         25    1    1    2    0    0  0.12461416350E+03 -0.86467360096E+02  0.59130894738E+02  0.20524803731E+03  0.12500000000E+03 0.  0.
</event>
<event>
 5    0  0.5626800E-005  0.2469149E+03  0.7546771E-02  0.1115270E+00
         21   -1    0    0  502  501  0.00000000000E+00  0.00000000000E+00  0.20251763522E+04  0.20251763522E+04  0.00000000000E+00 0. -1.
         21   -1    0    0  501  502 -0.00000000000E+00 -0.00000000000E+00 -0.30104522545E+02  0.30104522545E+02  0.00000000000E+00 0. -1.
         25    1    1    2    0    0  0.25927795117E+02  0.59050659317E+02  0.33827600071E+03  0.36635349539E+03  0.12500000000E+03 0.  0.
         25    1    1    2    0    0  0.76238738723E+02 -0.50957649592E+02  0.10310897316E+04  0.10426792709E+04  0.12500000000E+03 0.  0.
         25    1    1    2    0    0 -0.10216653384E+03 -0.80930097253E+01  0.62570609736E+03  0.64624810848E+03  0.12500000000E+03 0.  0.
</event>
<event>
 5    0  0.5626800E-005  0.2569217E+03  0.7546771E-02  0.1109007E+00
         21   -1    0    0  502  501  0.00000000000E+00  0.00000000000E+00  0.28392979371E+03  0.28392979371E+03  0.00000000000E+00 0. -1.
         21   -1    0    0  501  502 -0.00000000000E+00 -0.00000000000E+00 -0.23248275366E+03  0.23248275366E+03  0.00000000000E+00 0. -1.
         25    1    1    2    0    0  0.24851456135E+02 -0.69505345423E+02  0.52181514671E+02  0.15426113700E+03  0.12500000000E+03 0.  0.
         25    1    1    2    0    0 -0.22919481988E+02  0.14255156461E+03 -0.67706905427E+02  0.20262150989E+03  0.12500000000E+03 0.  0.
         25    1    1    2    0    0 -0.19319741470E+01 -0.73046219189E+02  0.66972430805E+02  0.15952990049E+03  0.12500000000E+03 0.  0.
</event>
<event>
 5    0  0.5626800E-005  0.5670415E+03  0.7546771E-02  0.9976247E-01
         21   -1    0    0  502  501  0.00000000000E+00  0.00000000000E+00  0.11766960626E+04  0.11766960626E+04  0.00000000000E+00 0.  1.
         21   -1    0    0  501  502 -0.00000000000E+00 -0.00000000000E+00 -0.27325323612E+03  0.27325323612E+03  0.00000000000E+00 0.  1.
         25    1    1    2    0    0  0.13912010554E+03  0.32180789969E+03  0.68973114128E+03  0.78375300657E+03  0.12500000000E+03 0.  0.
         25    1    1    2    0    0 -0.12275829286E+03  0.89868283256E+02  0.34791349966E+02  0.19995335665E+03  0.12500000000E+03 0.  0.
         25    1    1    2    0    0 -0.16361812679E+02 -0.41167618294E+03  0.17892033519E+03  0.46624293546E+03  0.12500000000E+03 0.  0.
</event>
<event>
 5    0  0.5626800E-005  0.2962636E+03  0.7546771E-02  0.1087123E+00
         21   -1    0    0  502  501  0.00000000000E+00  0.00000000000E+00  0.81142062908E+03  0.81142062908E+03  0.00000000000E+00 0.  1.
         21   -1    0    0  501  502 -0.00000000000E+00 -0.00000000000E+00 -0.10817094171E+03  0.10817094171E+03  0.00000000000E+00 0.  1.
         25    1    1    2    0    0  0.16993817600E+03  0.29122896284E+02  0.26745528218E+03  0.34188368595E+03  0.12500000000E+03 0.  0.
         25    1    1    2    0    0 -0.90465052377E+01 -0.58711313238E+02  0.30192068998E+03  0.33212943350E+03  0.12500000000E+03 0.  0.
         25    1    1    2    0    0 -0.16089167076E+03  0.29588416954E+02  0.13387371520E+03  0.24557845134E+03  0.12500000000E+03 0.  0.
</event>
<event>
 5    0  0.5626800E-005  0.6844209E+03  0.7546771E-02  0.9744252E-01
         21   -1    0    0  502  501  0.00000000000E+00  0.00000000000E+00  0.57589475604E+03  0.57589475604E+03  0.00000000000E+00 0. -1.
         21   -1    0    0  501  502 -0.00000000000E+00 -0.00000000000E+00 -0.81339855436E+03  0.81339855436E+03  0.00000000000E+00 0. -1.
         25    1    1    2    0    0  0.12252202242E+03  0.99229170872E+02  0.35205333121E+03  0.40549306078E+03  0.12500000000E+03 0.  0.
         25    1    1    2    0    0 -0.40075992615E+02 -0.42391991939E+02 -0.74675044933E+03  0.75938422405E+03  0.12500000000E+03 0.  0.
         25    1    1    2    0    0 -0.82446029804E+02 -0.56837178933E+02  0.15719331980E+03  0.22441602556E+03  0.12500000000E+03 0.  0.
</event>
<event>
 5    0  0.5626800E-005  0.3447159E+03  0.7546771E-02  0.1064805E+00
         21   -1    0    0  502  501  0.00000000000E+00  0.00000000000E+00  0.89659645024E+03  0.89659645024E+03  0.00000000000E+00 0. -1.
         21   -1    0    0  501  502 -0.00000000000E+00 -0.00000000000E+00 -0.13253351874E+03  0.13253351874E+03  0.00000000000E+00 0. -1.
         25    1    1    2    0    0  0.12768293235E+03  0.10304358970E+03  0.53826374741E+03  0.57643193385E+03  0.12500000000E+03 0.  0.
         25    1    1    2    0    0 -0.14379353481E+03  0.45350229871E+02  0.91458158966E+02  0.21615461791E+03  0.12500000000E+03 0.  0.
         25    1    1    2    0    0  0.16110602462E+02 -0.14839381957E+03  0.13434102512E+03  0.23654341722E+03  0.12500000000E+03 0.  0.
</event>
<event>
 5    0  0.5626800E-005  0.2298953E+03  0.7546771E-02  0.1126713E+00
         21   -1    0    0  502  501  0.00000000000E+00  0.00000000000E+00  0.66888906543E+03  0.66888906543E+03  0.00000000000E+00 0. -1.
         21   -1    0    0  501  502 -0.00000000000E+00 -0.00000000000E+00 -0.79014377324E+02  0.79014377324E+02  0.00000000000E+00 0. -1.
         25    1    1    2    0    0  0.93689194584E+02  0.55933526680E+01  0.25233722638E+03  0.29682996242E+03  0.12500000000E+03 0.  0.
         25    1    1    2    0    0  0.53942605931E+01  0.41534956693E+02  0.13044497238E+03  0.18545927180E+03  0.12500000000E+03 0.  0.
         25    1    1    2    0    0 -0.99083455177E+02 -0.47128309361E+02  0.20709248935E+03  0.26561420854E+03  0.12500000000E+03 0.  0.
</event>
<event>
 5    0  0.5626800E-005  0.2211708E+03  0.7546771E-02  0.1133013E+00
         21   -1    0    0  502  501  0.00000000000E+00  0.00000000000E+00  0.14543106504E+03  0.14543106504E+03  0.00000000000E+00 0.  1.
         21   -1    0    0  501  502 -0.00000000000E+00 -0.00000000000E+00 -0.33635529908E+03  0.33635529908E+03  0.00000000000E+00 0.  1.
         25    1    1    2    0    0  0.17860157577E+02  0.71059723431E+02 -0.96676298559E+02  0.17418316861E+03  0.12500000000E+03 0.  0.
         25    1    1    2    0    0 -0.12376073297E+02  0.24457822343E+01  0.14211081322E+02  0.12643616521E+03  0.12500000000E+03 0.  0.
         25    1    1    2    0    0 -0.54840842801E+01 -0.73505505666E+02 -0.10845901681E+03  0.18116703031E+03  0.12500000000E+03 0.  0.
</event>
<event>
 5    0  0.5626800E-005  0.2920157E+03  0.7546771E-02  0.1089301E+00
         21   -1    0    0  502  501  0.00000000000E+00  0.00000000000E+00  0.15016807565E+03  0.15016807565E+03  0.00000000000E+00 0.  1.
         21   -1    0    0  501  502 -0.00000000000E+00 -0.00000000000E+00 -0.56785132729E+03  0.56785132729E+03  0.00000000000E+00 0.  1.
         25    1    1    2    0    0 -0.39792878424E+02  0.13965550500E+03 -0.10199645235E+03  0.21706084295E+03  0.12500000000E+03 0.  0.
         25    1    1    2    0    0  0.48938341091E+02  0.41991089151E+02 -0.21840876878E+03  0.25977991277E+03  0.12500000000E+03 0.  0.
         25    1    1    2    0    0 -0.91454626675E+01 -0.18164659415E+03 -0.97278030512E+02  0.24117864722E+03  0.12500000000E+03 0.  0.
</event>
<event>
 5    0  0.5626800E-005  0.3793706E+03  0.7546771E-02  0.1051167E+00
         21   -1    0    0  502  501  0.00000000000E+00  0.00000000000E+00  0.10895721378E+03  0.10895721378E+03  0.00000000000E+00 0.  1.
         21   -1    0    0  501  502 -0.00000000000E+00 -0.00000000000E+00 -0.13209042000E+04  0.13209042000E+04  0.00000000000E+00 0.  1.
         25    1    1    2    0    0  0.35599949370E+02  0.31952378421E+01 -0.23611702676E+03  0.26954371866E+03  0.12500000000E+03 0.  0.
         25    1    1    2    0    0 -0.18479724345E+03  0.56953288572E+02 -0.92099879275E+03  0.94934581398E+03  0.12500000000E+03 0.  0.
         25    1    1    2    0    0  0.14919729408E+03 -0.60148526414E+02 -0.54831166693E+02  0.21097188114E+03  0.12500000000E+03 0.  0.
</event>
<event>
 5    0  0.5626800E-005  0.4154977E+03  0.7546771E-02  0.1038542E+00
         21   -1    0    0  502  501  0.00000000000E+00  0.00000000000E+00  0.27705375138E+03  0.27705375138E+03  0.00000000000E+00 0.  1.
         21   -1    0    0  501  502 -0.00000000000E+00 -0.00000000000E+00 -0.62312205332E+03  0.62312205332E+03  0.00000000000E+00 0.  1.
         25    1    1    2    0    0 -0.42097174402E+01 -0.15973693866E+03  0.17606200736E+03  0.26861951107E+03  0.12500000000E+03 0.  0.
         25    1    1    2    0    0  0.39530181494E+02  0.37284733316E+02 -0.37894858921E+03  0.40271555700E+03  0.12500000000E+03 0.  0.
         25    1    1    2    0    0 -0.35320464054E+02  0.12245220534E+03 -0.14318172009E+03  0.22884073663E+03  0.12500000000E+03 0.  0.
</event>
<event>
 5    0  0.5626800E-005  0.2664598E+03  0.7546771E-02  0.1103323E+00
         21   -1    0    0  502  501  0.00000000000E+00  0.00000000000E+00  0.17808285485E+03  0.17808285485E+03  0.00000000000E+00 0.  1.
         21   -1    0    0  501  502 -0.00000000000E+00 -0.00000000000E+00 -0.39869535579E+03  0.39869535579E+03  0.00000000000E+00 0.  1.
         25    1    1    2    0    0  0.57948267284E+02  0.29487596570E+02 -0.88588936414E+02  0.16643473101E+03  0.12500000000E+03 0.  0.
         25    1    1    2    0    0  0.25278581057E+02  0.54015326851E+02 -0.18448472256E+03  0.23068652984E+03  0.12500000000E+03 0.  0.
         25    1    1    2    0    0 -0.83226848341E+02 -0.83502923421E+02  0.52461158027E+02  0.17965694979E+03  0.12500000000E+03 0.  0.
</event>
<event>
 5    0  0.5626800E-005  0.2592929E+03  0.7546771E-02  0.1107569E+00
         21   -1    0    0  502  501  0.00000000000E+00  0.00000000000E+00  0.17085105743E+03  0.17085105743E+03  0.00000000000E+00 0. -1.
         21   -1    0    0  501  502 -0.00000000000E+00 -0.00000000000E+00 -0.39351698513E+03  0.39351698513E+03  0.00000000000E+00 0. -1.
         25    1    1    2    0    0 -0.39658549776E+02  0.42425441737E+02 -0.72787904903E+02  0.15587109346E+03  0.12500000000E+03 0.  0.
         25    1    1    2    0    0 -0.48815759489E+02  0.94291647564E+02 -0.11488928759E+03  0.20024595272E+03  0.12500000000E+03 0.  0.
         25    1    1    2    0    0  0.88474309264E+02 -0.13671708930E+03 -0.34988735201E+02  0.20825099639E+03  0.12500000000E+03 0.  0.
</event>
<event>
 5    0  0.5626800E-005  0.3496062E+03  0.7546771E-02  0.1062777E+00
         21   -1    0    0  502  501  0.00000000000E+00  0.00000000000E+00  0.15281827944E+04  0.15281827944E+04  0.00000000000E+00 0.  1.
         21   -1    0    0  501  502 -0.00000000000E+00 -0.00000000000E+00 -0.79980296383E+02  0.79980296383E+02  0.00000000000E+00 0.  1.
         25    1    1    2    0    0  0.89170225217E+02 -0.11392479663E+03  0.33097062515E+03  0.38222603662E+03  0.12500000000E+03 0.  0.
         25    1    1    2    0    0  0.14107754219E+03 -0.17701466716E+02  0.62455329624E+03  0.65261629973E+03  0.12500000000E+03 0.  0.
         25    1    1    2    0    0 -0.23024776740E+03  0.13162626335E+03  0.49267857661E+03  0.57332075442E+03  0.12500000000E+03 0.  0.
</event>
<event>
 5    0  0.5626800E-005  0.3489259E+03  0.7546771E-02  0.1063057E+00
         21   -1    0    0  502  501  0.00000000000E+00  0.00000000000E+00  0.18234251895E+03  0.18234251895E+03  0.00000000000E+00 0.  1.
         21   -1    0    0  501  502 -0.00000000000E+00 -0.00000000000E+00 -0.66769535985E+03  0.66769535985E+03  0.00000000000E+00 0.  1.
         25    1    1    2    0    0 -0.73813259829E+02  0.98309351673E+02 -0.40304492813E+03  0.43952626775E+03  0.12500000000E+03 0.  0.
         25    1    1    2    0    0 -0.29244632690E+02 -0.45110538133E+02  0.93885906811E+02  0.16531718813E+03  0.12500000000E+03 0.  0.
         25    1    1    2    0    0  0.10305789252E+03 -0.53198813540E+02 -0.17619381959E+03  0.24519442292E+03  0.12500000000E+03 0.  0.
</event>
<event>
 5    0  0.5626800E-005  0.3136205E+03  0.7546771E-02  0.1078623E+00
         21   -1    0    0  502  501  0.00000000000E+00  0.00000000000E+00  0.19595462760E+03  0.19595462760E+03  0.00000000000E+00 0.  1.
         21   -1    0    0  501  502 -0.00000000000E+00 -0.00000000000E+00 -0.50194170417E+03  0.50194170417E+03  0.00000000000E+00 0.  1.
         25    1    1    2    0    0  0.19470162060E+03  0.10731696868E+03 -0.16422010591E+03  0.30334616532E+03  0.12500000000E+03 0.  0.
         25    1    1    2    0    0 -0.99122267124E+02 -0.12368035561E+03 -0.38143617365E+02  0.20543122876E+03  0.12500000000E+03 0.  0.
         25    1    1    2    0    0 -0.95579353481E+02  0.16363386937E+02 -0.10362335330E+03  0.18911893769E+03  0.12500000000E+03 0.  0.
</event>
<event>
 5    0  0.5626800E-005  0.3244309E+03  0.7546771E-02  0.1073628E+00
         21   -1    0    0  502  501  0.00000000000E+00  0.00000000000E+00  0.79562293688E+02  0.79562293688E+02  0.00000000000E+00 0. -1.
         21   -1    0    0  501  502 -0.00000000000E+00 -0.00000000000E+00 -0.13229310568E+04  0.13229310568E+04  0.00000000000E+00 0. -1.
         25    1    1    2    0    0  0.48702943421E+02 -0.52774088263E+02 -0.21007916313E+03  0.25478488156E+03  0.12500000000E+03 0.  0.
         25    1    1    2    0    0  0.40322493109E+02  0.18640519537E+03 -0.82732752707E+03  0.85817750923E+03  0.12500000000E+03 0.  0.
         25    1    1    2    0    0 -0.89025436531E+02 -0.13363110710E+03 -0.20596207287E+03  0.28953095965E+03  0.12500000000E+03 0.  0.
</event>
<event>
 5    0  0.5626800E-005  0.3028798E+03  0.7546771E-02  0.1083810E+00
         21   -1    0    0  502  501  0.00000000000E+00  0.00000000000E+00  0.90194709386E+02  0.90194709386E+02  0.00000000000E+00 0. -1.
         21   -1    0    0  501  502 -0.00000000000E+00 -0.00000000000E+00 -0.10170905069E+04  0.10170905069E+04  0.00000000000E+00 0. -1.
         25    1    1    2    0    0 -0.53714747012E+02 -0.55245697924E+02 -0.15587046185E+03  0.21414472224E+03  0.12500000000E+03 0.  0.
         25    1    1    2    0    0 -0.84091382077E+02  0.14825333706E+03 -0.55200419285E+03  0.59108716905E+03  0.12500000000E+03 0.  0.
         25    1    1    2    0    0  0.13780612909E+03 -0.93007639136E+02 -0.21902114286E+03  0.30205332505E+03  0.12500000000E+03 0.  0.
</event>
<event>
 5    0  0.5626800E-005  0.3521109E+03  0.7546771E-02  0.1061752E+00
         21   -1    0    0  502  501  0.00000000000E+00  0.00000000000E+00  0.18961464573E+03  0.18961464573E+03  0.00000000000E+00 0. -1.
         21   -1    0    0  501  502 -0.00000000000E+00 -0.00000000000E+00 -0.65386334236E+03  0.65386334236E+03  0.00000000000E+00 0. -1.
         25    1    1    2    0    0 -0.23408462717E+03  0.10197022608E+03 -0.23808821977E+03  0.37081604614E+03  0.12500000000E+03 0.  0.
         25    1    1    2    0    0  0.10000287538E+03  0.44555675180E+02 -0.15550644251E+03  0.22758083605E+03  0.12500000000E+03 0.  0.
         25    1    1    2    0    0  0.13408175178E+03 -0.14652590126E+03 -0.70654034352E+02  0.24508110591E+03  0.12500000000E+03 0.  0.
</event>
<event>
 5    0  0.5626800E-005  0.2921708E+03  0.7546771E-02  0.1089221E+00
         21   -1    0    0  502  501  0.00000000000E+00  0.00000000000E+00  0.12320695059E+04  0.12320695059E+04  0.00000000000E+00 0.  1.
         21   -1    0    0  501  502 -0.00000000000E+00 -0.00000000000E+00 -0.69284855640E+02  0.69284855640E+02  0.00000000000E+00 0.  1.
         25    1    1    2    0    0  0.23068780297E+02  0.53774190954E+02  0.91312368384E+02  0.16548951887E+03  0.12500000000E+03 0.  0.
         25    1    1    2    0    0  0.72879579038E+02 -0.97000817570E+02  0.29678139092E+03  0.34412902471E+03  0.12500000000E+03 0.  0.
         25    1    1    2    0    0 -0.95948359335E+02  0.43226626616E+02  0.77469089097E+03  0.79173581798E+03  0.12500000000E+03 0.  0.
</event>
<event>
 5    0  0.5626800E-005  0.3112021E+03  0.7546771E-02  0.1079771E+00
         21   -1    0    0  502  501  0.00000000000E+00  0.00000000000E+00  0.37029150308E+03  0.37029150308E+03  0.00000000000E+00 0. -1.
         21   -1    0    0  501  502 -0.00000000000E+00 -0.00000000000E+00 -0.26154194358E+03  0.26154194358E+03  0.00000000000E+00 0. -1.
         25    1    1    2    0    0 -0.17247151357E+03  0.74688572267E+00  0.11867616631E+03  0.24383603770E+03  0.12500000000E+03 0.  0.
         25    1    1    2    0    0 -0.14964038457E+02  0.24932412058E+01  0.75744270428E+02  0.14694329927E+03  0.12500000000E+03 0.  0.
         25    1    1    2    0    0  0.18743555203E+03 -0.32401269285E+01 -0.85670877241E+02  0.24105410968E+03  0.12500000000E+03 0.  0.
</event>
<event>
 5    0  0.5626800E-005  0.2634417E+03  0.7546771E-02  0.1105093E+00
         21   -1    0    0  502  501  0.00000000000E+00  0.00000000000E+00  0.12520529475E+03  0.12520529475E+03  0.00000000000E+00 0.  1.
         21   -1    0    0  501  502 -0.00000000000E+00 -0.00000000000E+00 -0.55430198080E+03  0.55430198080E+03  0.00000000000E+00 0.  1.
         25    1    1    2    0    0  0.27398017221E+01  0.14924833307E+02 -0.30772914295E+03  0.33249433466E+03  0.12500000000E+03 0.  0.
         25    1    1    2    0    0  0.28042414140E+02 -0.43124520724E+02  0.37811215898E+02  0.14035950031E+03  0.12500000000E+03 0.  0.
         25    1    1    2    0    0 -0.30782215862E+02  0.28199687417E+02 -0.15917875900E+03  0.20665344058E+03  0.12500000000E+03 0.  0.
</event>
<event>
 5    0  0.5626800E-005  0.3792438E+03  0.7546771E-02  0.1051214E+00
         21   -1    0    0  502  501  0.00000000000E+00  0.00000000000E+00  0.16154530062E+03  0.16154530062E+03  0.00000000000E+00 0. -1.
         21   -1    0    0  501  502 -0.00000000000E+00 -0.00000000000E+00 -0.89031292679E+03  0.89031292679E+03  0.00000000000E+00 0. -1.
         25    1    1    2    0    0  0.51728173755E+02 -0.27999990169E+03 -0.39052571169E+03  0.49921045702E+03  0.12500000000E+03 0.  0.
         25    1    1    2    0    0 -0.46284619891E+02  0.26677857447E+03 -0.29534125390E+03  0.41971958507E+03  0.12500000000E+03 0.  0.
         25    1    1    2    0    0 -0.54435538635E+01  0.13221327220E+02 -0.42900660573E+02  0.13292818531E+03  0.12500000000E+03 0.  0.
</event>
<event>
 5    0  0.5626800E-005  0.3101160E+03  0.7546771E-02  0.1080290E+00
         21   -1    0    0  502  501  0.00000000000E+00  0.00000000000E+00  0.83192628249E+03  0.83192628249E+03  0.00000000000E+00 0.  1.
         21   -1    0    0  501  502 -0.00000000000E+00 -0.00000000000E+00 -0.11560148581E+03  0.11560148581E+03  0.00000000000E+00 0.  1.
         25    1    1    2    0    0 -0.55299930447E+02  0.13377516994E+03  0.40103992929E+03  0.44431059326E+03  0.12500000000E+03 0.  0.
         25    1    1    2    0    0  0.14852771833E+03 -0.11289845170E+03  0.24040746534E+03  0.32897916788E+03  0.12500000000E+03 0.  0.
         25    1    1    2    0    0 -0.93227787882E+02 -0.20876718243E+02  0.74877402048E+02  0.17423800715E+03  0.12500000000E+03 0.  0.
</event>
<event>
 5    0  0.5626800E-005  0.2668300E+03  0.7546771E-02  0.1103108E+00
         21   -1    0    0  502  501  0.00000000000E+00  0.00000000000E+00  0.19138048389E+02  0.19138048389E+02  0.00000000000E+00 0.  1.
         21   -1    0    0  501  502 -0.00000000000E+00 -0.00000000000E+00 -0.37202455046E+04  0.37202455046E+04  0.00000000000E+00 0.  1.
         25    1    1    2    0    0  0.26182729014E+02 -0.13292779095E+02 -0.66037139129E+03  0.67273888523E+03  0.12500000000E+03 0.  0.
         25    1    1    2    0    0  0.97410809151E+02  0.39190247000E+02 -0.22625331777E+04  0.22684148918E+04  0.12500000000E+03 0.  0.
         25    1    1    2    0    0 -0.12359353816E+03 -0.25897467905E+02 -0.77820288726E+03  0.79822977598E+03  0.12500000000E+03 0.  0.
</event>
<event>
 5    0  0.5626800E-005  0.3468415E+03  0.7546771E-02  0.1063919E+00
         21   -1    0    0  502  501  0.00000000000E+00  0.00000000000E+00  0.10345966781E+04  0.10345966781E+04  0.00000000000E+00 0.  1.
         21   -1    0    0  501  502 -0.00000000000E+00 -0.00000000000E+00 -0.11627627173E+03  0.11627627173E+03  0.00000000000E+00 0.  1.
         25    1    1    2    0    0  0.10932004727E+03 -0.16808105855E+03  0.29140477433E+03  0.37515844317E+03  0.12500000000E+03 0.  0.
         25    1    1    2    0    0 -0.55589630611E+02  0.49264712791E+02  0.56708268903E+03  0.58542719031E+03  0.12500000000E+03 0.  0.
         25    1    1    2    0    0 -0.53730416664E+02  0.11881634576E+03  0.59832943021E+02  0.19028731635E+03  0.12500000000E+03 0.  0.
</event>
<event>
 5    0  0.5626800E-005  0.3158155E+03  0.7546771E-02  0.1077591E+00
         21   -1    0    0  502  501  0.00000000000E+00  0.00000000000E+00  0.10913977914E+03  0.10913977914E+03  0.00000000000E+00 0.  1.
         21   -1    0    0  501  502 -0.00000000000E+00 -0.00000000000E+00 -0.91386883581E+03  0.91386883581E+03  0.00000000000E+00 0.  1.
         25    1    1    2    0    0  0.59127522565E+02 -0.25306710645E+02 -0.76788374225E+02  0.16018098497E+03  0.12500000000E+03 0.  0.
         25    1    1    2    0    0  0.25350140325E+01  0.38070518039E+02 -0.96741828178E+01  0.13105106048E+03  0.12500000000E+03 0.  0.
         25    1    1    2    0    0 -0.61662536598E+02 -0.12763807395E+02 -0.71826649962E+03  0.73177656951E+03  0.12500000000E+03 0.  0.
</event>
<event>
 5    0  0.5626800E-005  0.3495085E+03  0.7546771E-02  0.1062817E+00
         21   -1    0    0  502  501  0.00000000000E+00  0.00000000000E+00  0.73953219635E+02  0.73953219635E+02  0.00000000000E+00 0.  1.
         21   -1    0    0  501  502 -0.00000000000E+00 -0.00000000000E+00 -0.16518033206E+04  0.16518033206E+04  0.00000000000E+00 0.  1.
         25    1    1    2    0    0  0.59514924863E+02  0.19067412688E+03 -0.37416784899E+03  0.44218234718E+03  0.12500000000E+03 0.  0.
         25    1    1    2    0    0 -0.13534207259E+03 -0.21169421645E+03 -0.60467339088E+03  0.66662345258E+03  0.12500000000E+03 0.  0.
         25    1    1    2    0    0  0.75827147730E+02  0.21020089572E+02 -0.59900886114E+03  0.61695074051E+03  0.12500000000E+03 0.  0.
</event>
<event>
 5    0  0.5626800E-005  0.2356574E+03  0.7546771E-02  0.1122720E+00
         21   -1    0    0  502  501  0.00000000000E+00  0.00000000000E+00  0.14422150743E+04  0.14422150743E+04  0.00000000000E+00 0. -1.
         21   -1    0    0  501  502 -0.00000000000E+00 -0.00000000000E+00 -0.38506319661E+02  0.38506319661E+02  0.00000000000E+00 0. -1.
         25    1    1    2    0    0  0.77323221436E+02 -0.15750528340E+02  0.29133299969E+03  0.32669079636E+03  0.12500000000E+03 0.  0.
         25    1    1    2    0    0 -0.12081552533E+03  0.50321394443E+01  0.59607679383E+03  0.62093015528E+03  0.12500000000E+03 0.  0.
         25    1    1    2    0    0  0.43492303897E+02  0.10718388896E+02  0.51629896115E+03  0.53310044236E+03  0.12500000000E+03 0.  0.
</event>
<event>
 5    0  0.5646651E-005  0.2929597E+03  0.7546771E-02  0.1088814E+00
         21   -1    0    0  502  501  0.00000000000E+00  0.00000000000E+00  0.12020100289E+03  0.12020100289E+03  0.00000000000E+00 0.  1.
         21   -1    0    0  501  502 -0.00000000000E+00 -0.00000000000E+00 -0.71401555315E+03  0.71401555315E+03  0.00000000000E+00 0.  1.
         25    1    1    2    0    0 -0.18245617465E+03 -0.87172404917E+02 -0.23213135768E+03  0.33226382750E+03  0.12500000000E+03 0.  0.
         25    1    1    2    0    0  0.12673772750E+03  0.19405642446E+02 -0.11826107277E+03  0.21459196598E+03  0.12500000000E+03 0.  0.
         25    1    1    2    0    0  0.55718447144E+02  0.67766762472E+02 -0.24342211981E+03  0.28736076256E+03  0.12500000000E+03 0.  0.
</event>
<event>
 5    0  0.5626800E-005  0.3861119E+03  0.7546771E-02  0.1048698E+00
         21   -1    0    0  502  501  0.00000000000E+00  0.00000000000E+00  0.31855390648E+03  0.31855390648E+03  0.00000000000E+00 0.  1.
         21   -1    0    0  501  502 -0.00000000000E+00 -0.00000000000E+00 -0.46799739115E+03  0.46799739115E+03  0.00000000000E+00 0.  1.
         25    1    1    2    0    0 -0.14141570095E+02 -0.72056766141E+02 -0.33518982445E+03  0.36519772722E+03  0.12500000000E+03 0.  0.
         25    1    1    2    0    0 -0.66747226360E+02 -0.80988922024E+02  0.98936629646E+02  0.19086082469E+03  0.12500000000E+03 0.  0.
         25    1    1    2    0    0  0.80888796456E+02  0.15304568816E+03  0.86809710130E+02  0.23049274572E+03  0.12500000000E+03 0.  0.
</event>
<event>
 5    0  0.5626800E-005  0.2255779E+03  0.7546771E-02  0.1129792E+00
         21   -1    0    0  502  501  0.00000000000E+00  0.00000000000E+00  0.20872431909E+02  0.20872431909E+02  0.00000000000E+00 0. -1.
         21   -1    0    0  501  502 -0.00000000000E+00 -0.00000000000E+00 -0.24379231773E+04  0.24379231773E+04  0.00000000000E+00 0. -1.
         25    1    1    2    0    0  0.48776835845E+02  0.76793325663E+02 -0.56326018140E+03  0.58409196753E+03  0.12500000000E+03 0.  0.
         25    1    1    2    0    0  0.20369379237E+01 -0.33451947588E+01 -0.77381207681E+03  0.78385296432E+03  0.12500000000E+03 0.  0.
         25    1    1    2    0    0 -0.50813773769E+02 -0.73448130904E+02 -0.10799784872E+04  0.10908506773E+04  0.12500000000E+03 0.  0.
</event>
<event>
 5    0  0.5626800E-005  0.2298749E+03  0.7546771E-02  0.1126728E+00
         21   -1    0    0  502  501  0.00000000000E+00  0.00000000000E+00  0.10398530068E+03  0.10398530068E+03  0.00000000000E+00 0. -1.
         21   -1    0    0  501  502 -0.00000000000E+00 -0.00000000000E+00 -0.50817247702E+03  0.50817247702E+03  0.00000000000E+00 0. -1.
         25    1    1    2    0    0  0.31806435696E+02 -0.58219471216E+02 -0.16364197046E+03  0.21634428736E+03  0.12500000000E+03 0.  0.
         25    1    1    2    0    0  0.41002395494E+01  0.10890699282E+03 -0.83404677266E+02  0.18563104600E+03  0.12500000000E+03 0.  0.
         25    1    1    2    0    0 -0.35906675245E+02 -0.50687521609E+02 -0.15714052862E+03  0.21018244434E+03  0.12500000000E+03 0.  0.
</event>
<event>
 5    0  0.5626800E-005  0.2336320E+03  0.7546771E-02  0.1124109E+00
         21   -1    0    0  502  501  0.00000000000E+00  0.00000000000E+00  0.11498450920E+03  0.11498450920E+03  0.00000000000E+00 0. -1.
         21   -1    0    0  501  502 -0.00000000000E+00 -0.00000000000E+00 -0.47470645237E+03  0.47470645237E+03  0.00000000000E+00 0. -1.
         25    1    1    2    0    0  0.44967048988E+02  0.22609393370E+02 -0.22576453589E+03  0.26292174849E+03  0.12500000000E+03 0.  0.
         25    1    1    2    0    0 -0.13926331970E+02  0.11276249414E+02 -0.14601475344E+03  0.19304508474E+03  0.12500000000E+03 0.  0.
         25    1    1    2    0    0 -0.31040717018E+02 -0.33885642784E+02  0.12057346159E+02  0.13372412832E+03  0.12500000000E+03 0.  0.
</event>
<event>
 5    0  0.5626800E-005  0.4320378E+03  0.7546771E-02  0.1033218E+00
         21   -1    0    0  502  501  0.00000000000E+00  0.00000000000E+00  0.35010908502E+03  0.35010908502E+03  0.00000000000E+00 0.  1.
         21   -1    0    0  501  502 -0.00000000000E+00 -0.00000000000E+00 -0.53313851021E+03  0.53313851021E+03  0.00000000000E+00 0.  1.
         25    1    1    2    0    0 -0.11063818801E+03 -0.96962320772E+02 -0.24009349686E+02  0.19453521318E+03  0.12500000000E+03 0.  0.
         25    1    1    2    0    0  0.26963052964E+03  0.24796485745E+03 -0.19560688227E+03  0.43367527649E+03  0.12500000000E+03 0.  0.
         25    1    1    2    0    0 -0.15899234163E+03 -0.15100253668E+03  0.36586806773E+02  0.25503710556E+03  0.12500000000E+03 0.  0.
</event>
<event>
 5    0  0.5626800E-005  0.3859333E+03  0.7546771E-02  0.1048762E+00
         21   -1    0    0  502  501  0.00000000000E+00  0.00000000000E+00  0.28815311867E+03  0.28815311867E+03  0.00000000000E+00 0. -1.
         21   -1    0    0  501  502 -0.00000000000E+00 -0.00000000000E+00 -0.51689351071E+03  0.51689351071E+03  0.00000000000E+00 0. -1.
         25    1    1    2    0    0 -0.10327842385E+03 -0.82673564049E+02 -0.16534926885E+03  0.24589984086E+03  0.12500000000E+03 0.  0.
         25    1    1    2    0    0  0.19031056914E+03  0.11069607205E+03 -0.22254302403E+03  0.33707881962E+03  0.12500000000E+03 0.  0.
         25    1    1    2    0    0 -0.87032145291E+02 -0.28022507999E+02  0.15915190084E+03  0.22206796890E+03  0.12500000000E+03 0.  0.
</event>
<event>
 5    0  0.5626800E-005  0.4100030E+03  0.7546771E-02  0.1040370E+00
         21   -1    0    0  502  501  0.00000000000E+00  0.00000000000E+00  0.50686857303E+03  0.50686857303E+03  0.00000000000E+00 0.  1.
         21   -1    0    0  501  502 -0.00000000000E+00 -0.00000000000E+00 -0.33164904148E+03  0.33164904148E+03  0.00000000000E+00 0.  1.
         25    1    1    2    0    0  0.79876226294E+02  0.23365879154E+03  0.23797005646E+03  0.36500875354E+03  0.12500000000E+03 0.  0.
         25    1    1    2    0    0 -0.16549013751E+02  0.45738834099E+02  0.47161209447E+02  0.14217978224E+03  0.12500000000E+03 0.  0.
         25    1    1    2    0    0 -0.63327212543E+02 -0.27939762563E+03 -0.10991173437E+03  0.33132907873E+03  0.12500000000E+03 0.  0.
</event>
<event>
 5    0  0.5626800E-005  0.4613868E+03  0.7546771E-02  0.1024380E+00
         21   -1    0    0  502  501  0.00000000000E+00  0.00000000000E+00  0.57000368398E+03  0.57000368398E+03  0.00000000000E+00 0.  1.
         21   -1    0    0  501  502 -0.00000000000E+00 -0.00000000000E+00 -0.37346731066E+03  0.37346731066E+03  0.00000000000E+00 0.  1.
         25    1    1    2    0    0  0.21017470322E+03  0.13589895820E+03 -0.19356297495E+03  0.34019635211E+03  0.12500000000E+03 0.  0.
         25    1    1    2    0    0 -0.19233347565E+03 -0.11256955596E+03  0.80169662750E+02  0.26779889023E+03  0.12500000000E+03 0.  0.
         25    1    1    2    0    0 -0.17841227571E+02 -0.23329402246E+02  0.30992968553E+03  0.33547575230E+03  0.12500000000E+03 0.  0.
</event>
<event>
 5    0  0.5626800E-005  0.2988172E+03  0.7546771E-02  0.1085833E+00
         21   -1    0    0  502  501  0.00000000000E+00  0.00000000000E+00  0.19857078021E+03  0.19857078021E+03  0.00000000000E+00 0. -1.
         21   -1    0    0  501  502 -0.00000000000E+00 -0.00000000000E+00 -0.44967186973E+03  0.44967186973E+03  0.00000000000E+00 0. -1.
         25    1    1    2    0    0  0.96535890286E+02 -0.91294647676E+01 -0.17618579073E+03  0.23678884707E+03  0.12500000000E+03 0.  0.
         25    1    1    2    0    0 -0.15720230334E+03 -0.34154709679E+02 -0.14487084077E+03  0.24998333719E+03  0.12500000000E+03 0.  0.
         25    1    1    2    0    0  0.60666413056E+02  0.43284174446E+02  0.69955541987E+02  0.16147046567E+03  0.12500000000E+03 0.  0.
</event>
<event>
 5    0  0.5626800E-005  0.3614368E+03  0.7546771E-02  0.1058016E+00
         21   -1    0    0  502  501  0.00000000000E+00  0.00000000000E+00  0.18647536111E+04  0.18647536111E+04  0.00000000000E+00 0. -1.
         21   -1    0    0  501  502 -0.00000000000E+00 -0.00000000000E+00 -0.70055684449E+02  0.70055684449E+02  0.00000000000E+00 0. -1.
         25    1    1    2    0    0 -0.59242838733E+02 -0.11092581822E+03  0.96435445923E+03  0.98051964495E+03  0.12500000000E+03 0.  0.
         25    1    1    2    0    0 -0.13818903207E+02 -0.69112477544E+01  0.26050965634E+02  0.12861718486E+03  0.12500000000E+03 0.  0.
         25    1    1    2    0    0  0.73061741941E+02  0.11783706597E+03  0.80429250183E+03  0.82567246578E+03  0.12500000000E+03 0.  0.
</event>
<event>
 5    0  0.5626800E-005  0.2329979E+03  0.7546771E-02  0.1124547E+00
         21   -1    0    0  502  501  0.00000000000E+00  0.00000000000E+00  0.19108023057E+03  0.19108023057E+03  0.00000000000E+00 0.  1.
         21   -1    0    0  501  502 -0.00000000000E+00 -0.00000000000E+00 -0.28411120663E+03  0.28411120663E+03  0.00000000000E+00 0.  1.
         25    1    1    2    0    0  0.25776866902E+01  0.44822894360E+01 -0.17313896557E+02  0.12629927316E+03  0.12500000000E+03 0.  0.
         25    1    1    2    0    0 -0.78966144622E+02  0.81961303088E+02 -0.21775860918E+02  0.17044792553E+03  0.12500000000E+03 0.  0.
         25    1    1    2    0    0  0.76388457932E+02 -0.86443592524E+02 -0.53941218581E+02  0.17844423850E+03  0.12500000000E+03 0.  0.
</event>
<event>
 5    0  0.5626800E-005  0.2497615E+03  0.7546771E-02  0.1113456E+00
         21   -1    0    0  502  501  0.00000000000E+00  0.00000000000E+00  0.11296453349E+03  0.11296453349E+03  0.00000000000E+00 0.  1.
         21   -1    0    0  501  502 -0.00000000000E+00 -0.00000000000E+00 -0.55221597573E+03  0.55221597573E+03  0.00000000000E+00 0.  1.
         25    1    1    2    0    0 -0.88821013713E+02  0.25446640488E+02 -0.26602403176E+02  0.15770032290E+03  0.12500000000E+03 0.  0.
         25    1    1    2    0    0  0.23736093881E+01 -0.38233307843E+02 -0.11994588053E+03  0.17742444619E+03  0.12500000000E+03 0.  0.
         25    1    1    2    0    0  0.86447404325E+02  0.12786667355E+02 -0.29270315854E+03  0.33005574013E+03  0.12500000000E+03 0.  0.
</event>
<event>
 5    0  0.5626800E-005  0.4045505E+03  0.7546771E-02  0.1042215E+00
         21   -1    0    0  502  501  0.00000000000E+00  0.00000000000E+00  0.53284394496E+03  0.53284394496E+03  0.00000000000E+00 0.  1.
         21   -1    0    0  501  502 -0.00000000000E+00 -0.00000000000E+00 -0.30714642583E+03  0.30714642583E+03  0.00000000000E+00 0.  1.
         25    1    1    2    0    0 -0.26658744054E+02 -0.71489701848E+02  0.69997333118E+01  0.14661330898E+03  0.12500000000E+03 0.  0.
         25    1    1    2    0    0  0.14781770365E+03  0.30208749945E+03  0.18142690841E+03  0.40205429227E+03  0.12500000000E+03 0.  0.
         25    1    1    2    0    0 -0.12115895960E+03 -0.23059779760E+03  0.37270877417E+02  0.29132276954E+03  0.12500000000E+03 0.  0.
</event>
<event>
 5    0  0.6339940E-005  0.3132587E+03  0.7546771E-02  0.1078794E+00
         21   -1    0    0  502  501  0.00000000000E+00  0.00000000000E+00  0.15423966201E+03  0.15423966201E+03  0.00000000000E+00 0. -1.
         21   -1    0    0  501  502 -0.00000000000E+00 -0.00000000000E+00 -0.63622437340E+03  0.63622437340E+03  0.00000000000E+00 0. -1.
         25    1    1    2    0    0 -0.13424630280E+03  0.75484705079E+02 -0.35291338515E+03  0.40483684113E+03  0.12500000000E+03 0.  0.
         25    1    1    2    0    0  0.58826305638E+02 -0.12886795335E+03 -0.13146546827E+03  0.23016440425E+03  0.12500000000E+03 0.  0.
         25    1    1    2    0    0  0.75419997166E+02  0.53383248269E+02  0.23941420268E+01  0.15546279003E+03  0.12500000000E+03 0.  0.
</event>
<event>
 5    0  0.5626800E-005  0.2565380E+03  0.7546771E-02  0.1109241E+00
         21   -1    0    0  502  501  0.00000000000E+00  0.00000000000E+00  0.83062595158E+03  0.83062595158E+03  0.00000000000E+00 0. -1.
         21   -1    0    0  501  502 -0.00000000000E+00 -0.00000000000E+00 -0.79231535484E+02  0.79231535484E+02  0.00000000000E+00 0. -1.
         25    1    1    2    0    0 -0.73303790438E+02  0.49702309542E+02  0.43600909145E+03  0.46213925725E+03  0.12500000000E+03 0.  0.
         25    1    1    2    0    0 -0.29793659376E+02 -0.80092128250E+02  0.12931433024E+03  0.19912209107E+03  0.12500000000E+03 0.  0.
         25    1    1    2    0    0  0.10309744981E+03  0.30389818708E+02  0.18607099442E+03  0.24859613875E+03  0.12500000000E+03 0.  0.
</event>
<event>
 5    0  0.5626800E-005  0.2582569E+03  0.7546771E-02  0.1108195E+00
         21   -1    0    0  502  501  0.00000000000E+00  0.00000000000E+00  0.26103413758E+03  0.26103413758E+03  0.00000000000E+00 0.  1.
         21   -1    0    0  501  502 -0.00000000000E+00 -0.00000000000E+00 -0.25550915983E+03  0.25550915983E+03  0.00000000000E+00 0.  1.
         25    1    1    2    0    0 -0.10444124804E+03  0.33140697883E+02 -0.90253958953E+02  0.18914824148E+03  0.12500000000E+03 0.  0.
         25    1    1    2    0    0  0.13235789972E+03 -0.20307043204E+02  0.70100990198E+02  0.19613805966E+03  0.12500000000E+03 0.  0.
         25    1    1    2    0    0 -0.27916651678E+02 -0.12833654679E+02  0.25677946509E+02  0.13125699627E+03  0.12500000000E+03 0.  0.
</event>
<event>
 5    0  0.5626800E-005  0.3031724E+03  0.7546771E-02  0.1083665E+00
         21   -1    0    0  502  501  0.00000000000E+00  0.00000000000E+00  0.70727604862E+03  0.70727604862E+03  0.00000000000E+00 0.  1.
         21   -1    0    0  501  502 -0.00000000000E+00 -0.00000000000E+00 -0.12995424411E+03  0.12995424411E+03  0.00000000000E+00 0.  1.
         25    1    1    2    0    0 -0.71251164222E+02  0.62989262779E+02  0.22648991506E+03  0.27562122061E+03  0.12500000000E+03 0.  0.
         25    1    1    2    0    0 -0.11442583662E+03  0.40973186043E+02  0.22482251680E+03  0.28450349404E+03  0.12500000000E+03 0.  0.
         25    1    1    2    0    0  0.18567700084E+03 -0.10396244882E+03  0.12600937266E+03  0.27710557808E+03  0.12500000000E+03 0.  0.
</event>
<event>
 5    0  0.5626800E-005  0.3364969E+03  0.7546771E-02  0.1068298E+00
         21   -1    0    0  502  501  0.00000000000E+00  0.00000000000E+00  0.29015638566E+03  0.29015638566E+03  0.00000000000E+00 0. -1.
         21   -1    0    0  501  502 -0.00000000000E+00 -0.00000000000E+00 -0.39023837559E+03  0.39023837559E+03  0.00000000000E+00 0. -1.
         25    1    1    2    0    0 -0.16197598819E+02 -0.18527874161E+03 -0.98928025283E+02  0.24495372724E+03  0.12500000000E+03 0.  0.
         25    1    1    2    0    0  0.59358883307E+02  0.77241445086E+02 -0.14299456143E+03  0.21345295141E+03  0.12500000000E+03 0.  0.
         25    1    1    2    0    0 -0.43161284488E+02  0.10803729653E+03  0.14184059679E+03  0.22198808260E+03  0.12500000000E+03 0.  0.
</event>
<event>
 5    0  0.5626800E-005  0.3621163E+03  0.7546771E-02  0.1057749E+00
         21   -1    0    0  502  501  0.00000000000E+00  0.00000000000E+00  0.12863228677E+04  0.12863228677E+04  0.00000000000E+00 0. -1.
         21   -1    0    0  501  502 -0.00000000000E+00 -0.00000000000E+00 -0.10194036543E+03  0.10194036543E+03  0.00000000000E+00 0. -1.
         25    1    1    2    0    0  0.14812112656E+03 -0.64330316322E+02  0.61753234479E+03  0.65042252005E+03  0.12500000000E+03 0.  0.
         25    1    1    2    0    0  0.54180343604E+02 -0.29937368790E+01  0.19994874791E+02  0.13772896250E+03  0.12500000000E+03 0.  0.
         25    1    1    2    0    0 -0.20230147017E+03  0.67324053201E+02  0.54685528265E+03  0.60011175053E+03  0.12500000000E+03 0.  0.
</event>
<event>
 5    0  0.5626800E-005  0.3544466E+03  0.7546771E-02  0.1060805E+00
         21   -1    0    0  502  501  0.00000000000E+00  0.00000000000E+00  0.12574306423E+04  0.12574306423E+04  0.00000000000E+00 0. -1.
         21   -1    0    0  501  502 -0.00000000000E+00 -0.00000000000E+00 -0.99911986726E+02  0.99911986726E+02  0.00000000000E+00 0. -1.
         25    1    1    2    0    0 -0.16869478000E+03 -0.11446244113E+03  0.79062005857E+03  0.82599313329E+03  0.12500000000E+03 0.  0.
         25    1    1    2    0    0  0.73376446401E+02 -0.29937814252E+02  0.24305486624E+03  0.28457168449E+03  0.12500000000E+03 0.  0.
         25    1    1    2    0    0  0.95318333601E+02  0.14440025538E+03  0.12384373076E+03  0.24677781125E+03  0.12500000000E+03 0.  0.
</event>
<event>
 5    0  0.5626800E-005  0.2561751E+03  0.7546771E-02  0.1109463E+00
         21   -1    0    0  502  501  0.00000000000E+00  0.00000000000E+00  0.20501155229E+04  0.20501155229E+04  0.00000000000E+00 0.  1.
         21   -1    0    0  501  502 -0.00000000000E+00 -0.00000000000E+00 -0.32010726358E+02  0.32010726358E+02  0.00000000000E+00 0.  1.
         25    1    1    2    0    0  0.37662036623E+02  0.78750672597E+02  0.83314918419E+03  0.84698445119E+03  0.12500000000E+03 0.  0.
         25    1    1    2    0    0 -0.12394265289E+03 -0.14662741579E+02  0.73529473645E+03  0.75621433910E+03  0.12500000000E+03 0.  0.
         25    1    1    2    0    0  0.86280616269E+02 -0.64087931018E+02  0.44966087587E+03  0.47892745895E+03  0.12500000000E+03 0.  0.
</event>
<event>
 5    0  0.5626800E-005  0.3614428E+03  0.7546771E-02  0.1058014E+00
         21   -1    0    0  502  501  0.00000000000E+00  0.00000000000E+00  0.11795625565E+03  0.11795625565E+03  0.00000000000E+00 0. -1.
         21   -1    0    0  501  502 -0.00000000000E+00 -0.00000000000E+00 -0.11075365562E+04  0.11075365562E+04  0.00000000000E+00 0. -1.
         25    1    1    2    0    0  0.46728473864E+02  0.91581848071E+02 -0.60066943688E+03  0.62209288500E+03  0.12500000000E+03 0.  0.
         25    1    1    2    0    0  0.15230684656E+03  0.65961274371E+01 -0.23108522099E+03  0.30375362346E+03  0.12500000000E+03 0.  0.
         25    1    1    2    0    0 -0.19903532042E+03 -0.98177975508E+02 -0.15782564271E+03  0.29964630341E+03  0.12500000000E+03 0.  0.
</event>
<event>
 5    0  0.5626800E-005  0.3880716E+03  0.7546771E-02  0.1047990E+00
         21   -1    0    0  502  501  0.00000000000E+00  0.00000000000E+00  0.62642643611E+03  0.62642643611E+03  0.00000000000E+00 0.  1.
         21   -1    0    0  501  502 -0.00000000000E+00 -0.00000000000E+00 -0.24041059277E+03  0.24041059277E+03  0.00000000000E+00 0.  1.
         25    1    1    2    0    0  0.42254241288E+02  0.82835415469E+02  0.86071198026E+00  0.15579752176E+03  0.12500000000E+03 0.  0.
         25    1    1    2    0    0  0.99176452069E+02  0.18938627316E+03  0.25404720207E+03  0.35477895934E+03  0.12500000000E+03 0.  0.
         25    1    1    2    0    0 -0.14143069336E+03 -0.27222168863E+03  0.13110792928E+03  0.35626054778E+03  0.12500000000E+03 0.  0.
</event>
<event>
 5    0  0.5784288E-005  0.3595349E+03  0.7546771E-02  0.1058768E+00
         21   -1    0    0  502  501  0.00000000000E+00  0.00000000000E+00  0.40973819783E+03  0.40973819783E+03  0.00000000000E+00 0. -1.
         21   -1    0    0  501  502 -0.00000000000E+00 -0.00000000000E+00 -0.31548283112E+03  0.31548283112E+03  0.00000000000E+00 0. -1.
         25    1    1    2    0    0 -0.15612496081E+03 -0.10972192372E+03  0.87068698556E+02  0.24417178830E+03  0.12500000000E+03 0.  0.
         25    1    1    2    0    0  0.10426958902E+03  0.75404058664E+02  0.18318694506E+03  0.25639886134E+03  0.12500000000E+03 0.  0.
         25    1    1    2    0    0  0.51855371797E+02  0.34317865058E+02 -0.17600027691E+03  0.22465037930E+03  0.12500000000E+03 0.  0.
</event>
<event>
 5    0  0.5626800E-005  0.4722905E+03  0.7546771E-02  0.1021276E+00
         21   -1    0    0  502  501  0.00000000000E+00  0.00000000000E+00  0.65030680439E+03  0.65030680439E+03  0.00000000000E+00 0.  1.
         21   -1    0    0  501  502 -0.00000000000E+00 -0.00000000000E+00 -0.34300468573E+03  0.34300468573E+03  0.00000000000E+00 0.  1.
         25    1    1    2    0    0 -0.14574691870E+03 -0.60885815120E+01  0.17177796194E+03  0.25770507047E+03  0.12500000000E+03 0.  0.
         25    1    1    2    0    0  0.34854744523E+03 -0.15891199027E+03 -0.26108234093E+02  0.40378828873E+03  0.12500000000E+03 0.  0.
         25    1    1    2    0    0 -0.20280052652E+03  0.16500057178E+03  0.16163239082E+03  0.33181813092E+03  0.12500000000E+03 0.  0.
</event>
<event>
 5    0  0.5626800E-005  0.2465238E+03  0.7546771E-02  0.1115522E+00
         21   -1    0    0  502  501  0.00000000000E+00  0.00000000000E+00  0.79700888054E+02  0.79700888054E+02  0.00000000000E+00 0. -1.
         21   -1    0    0  501  502 -0.00000000000E+00 -0.00000000000E+00 -0.76252576128E+03  0.76252576128E+03  0.00000000000E+00 0. -1.
         25    1    1    2    0    0 -0.85143055133E+02 -0.64750631323E+02 -0.34147608438E+03  0.37904208249E+03  0.12500000000E+03 0.  0.
         25    1    1    2    0    0  0.68618373206E+01 -0.37117726588E+02 -0.17734153582E+03  0.22022677123E+03  0.12500000000E+03 0.  0.
         25    1    1    2    0    0  0.78281217813E+02  0.10186835791E+03 -0.16400725303E+03  0.24295779562E+03  0.12500000000E+03 0.  0.
</event>
<event>
 5    0  0.5626800E-005  0.3392904E+03  0.7546771E-02  0.1067099E+00
         21   -1    0    0  502  501  0.00000000000E+00  0.00000000000E+00  0.35710597431E+03  0.35710597431E+03  0.00000000000E+00 0.  1.
         21   -1    0    0  501  502 -0.00000000000E+00 -0.00000000000E+00 -0.32236360865E+03  0.32236360865E+03  0.00000000000E+00 0.  1.
         25    1    1    2    0    0 -0.50416431198E+02 -0.80189446841E+02 -0.11817977094E+03  0.19637622610E+03  0.12500000000E+03 0.  0.
         25    1    1    2    0    0 -0.10804451503E+03  0.38388230436E+02  0.20930509831E+03  0.26940842162E+03  0.12500000000E+03 0.  0.
         25    1    1    2    0    0  0.15846094623E+03  0.41801216405E+02 -0.56382961715E+02  0.21368493523E+03  0.12500000000E+03 0.  0.
</event>
<event>
 5    0  0.5626800E-005  0.2362559E+03  0.7546771E-02  0.1122312E+00
         21   -1    0    0  502  501  0.00000000000E+00  0.00000000000E+00  0.57074490438E+03  0.57074490438E+03  0.00000000000E+00 0.  1.
         21   -1    0    0  501  502 -0.00000000000E+00 -0.00000000000E+00 -0.97796485478E+02  0.97796485478E+02  0.00000000000E+00 0.  1.
         25    1    1    2    0    0 -0.57156928539E+02  0.11005263810E+03  0.21402572212E+03  0.27714708615E+03  0.12500000000E+03 0.  0.
         25    1    1    2    0    0  0.35690065669E+02 -0.19180785027E+02  0.15832507412E+03  0.20575109331E+03  0.12500000000E+03 0.  0.
         25    1    1    2    0    0  0.21466862869E+02 -0.90871853075E+02  0.10059762266E+03  0.18564321040E+03  0.12500000000E+03 0.  0.
</event>
<event>
 5    0  0.5626800E-005  0.3061608E+03  0.7546771E-02  0.1082201E+00
         21   -1    0    0  502  501  0.00000000000E+00  0.00000000000E+00  0.76562856549E+02  0.76562856549E+02  0.00000000000E+00 0. -1.
         21   -1    0    0  501  502 -0.00000000000E+00 -0.00000000000E+00 -0.12242810858E+04  0.12242810858E+04  0.00000000000E+00 0. -1.
         25    1    1    2    0    0  0.22976267646E+02 -0.12482967578E+03 -0.75479014391E+03  0.77552789645E+03  0.12500000000E+03 0.  0.
         25    1    1    2    0    0 -0.28085623756E+02  0.10185256491E+03 -0.69573212863E+02  0.17784313084E+03  0.12500000000E+03 0.  0.
         25    1    1    2    0    0  0.51093561106E+01  0.22977110871E+02 -0.32335487251E+03  0.34747291508E+03  0.12500000000E+03 0.  0.
</event>
<event>
 5    0  0.5626800E-005  0.3064167E+03  0.7546771E-02  0.1082076E+00
         21   -1    0    0  502  501  0.00000000000E+00  0.00000000000E+00  0.10652775090E+04  0.10652775090E+04  0.00000000000E+00 0.  1.
         21   -1    0    0  501  502 -0.00000000000E+00 -0.00000000000E+00 -0.88137791674E+02  0.88137791674E+02  0.00000000000E+00 0.  1.
         25    1    1    2    0    0  0.19606128382E+03 -0.30495479151E+02  0.21537618216E+03  0.31840524667E+03  0.12500000000E+03 0.  0.
         25    1    1    2    0    0 -0.30776744860E+02 -0.13767578433E+02  0.31363368112E+03  0.33930493685E+03  0.12500000000E+03 0.  0.
         25    1    1    2    0    0 -0.16528453896E+03  0.44263057584E+02  0.44812985402E+03  0.49570511713E+03  0.12500000000E+03 0.  0.
</event>
<event>
 5    0  0.5626800E-005  0.2162006E+03  0.7546771E-02  0.1136748E+00
         21   -1    0    0  502  501  0.00000000000E+00  0.00000000000E+00  0.61561892876E+03  0.61561892876E+03  0.00000000000E+00 0. -1.
         21   -1    0    0  501  502 -0.00000000000E+00 -0.00000000000E+00 -0.75927971738E+02  0.75927971738E+02  0.00000000000E+00 0. -1.
         25    1    1    2    0    0  0.17924432224E+01 -0.90600692741E+02  0.20538327981E+03  0.25694160816E+03  0.12500000000E+03 0.  0.
         25    1    1    2    0    0 -0.26574632159E+02  0.64656436457E+02  0.21360991103E+03  0.25717865374E+03  0.12500000000E+03 0.  0.
         25    1    1    2    0    0  0.24782188936E+02  0.25944256284E+02  0.12069776618E+03  0.17742663860E+03  0.12500000000E+03 0.  0.
</event>
<event>
 5    0  0.5626800E-005  0.3371266E+03  0.7546771E-02  0.1068026E+00
         21   -1    0    0  502  501  0.00000000000E+00  0.00000000000E+00  0.34333920051E+03  0.34333920051E+03  0.00000000000E+00 0. -1.
         21   -1    0    0  501  502 -0.00000000000E+00 -0.00000000000E+00 -0.33102649343E+03  0.33102649343E+03  0.00000000000E+00 0. -1.
         25    1    1    2    0    0 -0.11679173028E+03 -0.20401043636E+03 -0.79198154119E+02  0.27777313409E+03  0.12500000000E+03 0.  0.
         25    1    1    2    0    0  0.12260524156E+03  0.18565405937E+03  0.33276585137E+02  0.25735540821E+03  0.12500000000E+03 0.  0.
         25    1    1    2    0    0 -0.58135112784E+01  0.18356376989E+02  0.58234276061E+02  0.13923715164E+03  0.12500000000E+03 0.  0.
</event>
<event>
 5    0  0.5626800E-005  0.5680940E+03  0.7546771E-02  0.9973905E-01
         21   -1    0    0  502  501  0.00000000000E+00  0.00000000000E+00  0.32521614186E+04  0.32521614186E+04  0.00000000000E+00 0.  1.
         21   -1    0    0  501  502 -0.00000000000E+00 -0.00000000000E+00 -0.99235771984E+02  0.99235771984E+02  0.00000000000E+00 0.  1.
         25    1    1    2    0    0  0.11405934056E+02  0.35182498801E+03  0.40468168622E+03  0.55072968385E+03  0.12500000000E+03 0.  0.
         25    1    1    2    0    0  0.31348337006E+02 -0.13667235010E+03  0.43685734588E+03  0.47553274353E+03  0.12500000000E+03 0.  0.
         25    1    1    2    0    0 -0.42754271062E+02 -0.21515263790E+03  0.23113866145E+04  0.23251347632E+04  0.12500000000E+03 0.  0.
</event>
<event>
 5    0  0.5626800E-005  0.3037711E+03  0.7546771E-02  0.1083371E+00
         21   -1    0    0  502  501  0.00000000000E+00  0.00000000000E+00  0.27864524215E+02  0.27864524215E+02  0.00000000000E+00 0. -1.
         21   -1    0    0  501  502 -0.00000000000E+00 -0.00000000000E+00 -0.33116261358E+04  0.33116261358E+04  0.00000000000E+00 0. -1.
         25    1    1    2    0    0  0.31062207359E+02 -0.22975040627E+02 -0.24635748158E+03  0.27894394051E+03  0.12500000000E+03 0.  0.
         25    1    1    2    0    0  0.11711347741E+03 -0.31654409991E+02 -0.13807748905E+04  0.13917190329E+04  0.12500000000E+03 0.  0.
         25    1    1    2    0    0 -0.14817568477E+03  0.54629450618E+02 -0.16566292395E+04  0.16688276866E+04  0.12500000000E+03 0.  0.
</event>
<event>
 5    0  0.5743083E-005  0.2562017E+03  0.7546771E-02  0.1109447E+00
         21   -1    0    0  502  501  0.00000000000E+00  0.00000000000E+00  0.15060890454E+03  0.15060890454E+03  0.00000000000E+00 0. -1.
         21   -1    0    0  501  502 -0.00000000000E+00 -0.00000000000E+00 -0.43582630426E+03  0.43582630426E+03  0.00000000000E+00 0. -1.
         25    1    1    2    0    0  0.27241321901E+02 -0.44385847052E+02  0.57864780944E+01  0.13553846822E+03  0.12500000000E+03 0.  0.
         25    1    1    2    0    0  0.64002818466E+02 -0.45178096155E+02 -0.61171881562E+02  0.15970103393E+03  0.12500000000E+03 0.  0.
         25    1    1    2    0    0 -0.91244140367E+02  0.89563943207E+02 -0.22983199625E+03  0.29119570666E+03  0.12500000000E+03 0.  0.
</event>
<event>
 5    0  0.5626800E-005  0.4550951E+03  0.7546771E-02  0.1026213E+00
         21   -1    0    0  502  501  0.00000000000E+00  0.00000000000E+00  0.97840356035E+02  0.97840356035E+02  0.00000000000E+00 0.  1.
         21   -1    0    0  501  502 -0.00000000000E+00 -0.00000000000E+00 -0.21168313767E+04  0.21168313767E+04  0.00000000000E+00 0.  1.
         25    1    1    2    0    0  0.35255631439E+03 -0.61540423399E+00 -0.97740324835E+03  0.10465364033E+04  0.12500000000E+03 0.  0.
         25    1    1    2    0    0 -0.38568918548E+01 -0.20567248652E+02 -0.46916551988E+03  0.48598268732E+03  0.12500000000E+03 0.  0.
         25    1    1    2    0    0 -0.34869942254E+03  0.21182652886E+02 -0.57242225242E+03  0.68215264210E+03  0.12500000000E+03 0.  0.
</event>
<event>
 5    0  0.5626800E-005  0.3811807E+03  0.7546771E-02  0.1050498E+00
         21   -1    0    0  502  501  0.00000000000E+00  0.00000000000E+00  0.20618256217E+03  0.20618256217E+03  0.00000000000E+00 0.  1.
         21   -1    0    0  501  502 -0.00000000000E+00 -0.00000000000E+00 -0.70470910995E+03  0.70470910995E+03  0.00000000000E+00 0.  1.
         25    1    1    2    0    0 -0.75370197946E+01  0.68986827563E+02 -0.45128713139E+02  0.14992528070E+03  0.12500000000E+03 0.  0.
         25    1    1    2    0    0 -0.23955663173E+03 -0.35997523015E+02 -0.60613915717E+02  0.27925301833E+03  0.12500000000E+03 0.  0.
         25    1    1    2    0    0  0.24709365153E+03 -0.32989304548E+02 -0.39278391893E+03  0.48171337308E+03  0.12500000000E+03 0.  0.
</event>
<event>
 5    0  0.5626800E-005  0.2466833E+03  0.7546771E-02  0.1115419E+00
         21   -1    0    0  502  501  0.00000000000E+00  0.00000000000E+00  0.73204233424E+03  0.73204233424E+03  0.00000000000E+00 0.  1.
         21   -1    0    0  501  502 -0.00000000000E+00 -0.00000000000E+00 -0.83127231809E+02  0.83127231809E+02  0.00000000000E+00 0.  1.
         25    1    1    2    0    0  0.91427243138E+00 -0.45788496048E+02  0.55494732968E+02  0.14422928847E+03  0.12500000000E+03 0.  0.
         25    1    1    2    0    0  0.81163987252E+02  0.19659521341E+01  0.36667389823E+03  0.39581082026E+03  0.12500000000E+03 0.  0.
         25    1    1    2    0    0 -0.82078259683E+02  0.43822543914E+02  0.22674647124E+03  0.27512945732E+03  0.12500000000E+03 0.  0.
</event>
<event>
 5    0  0.6402133E-005  0.2657413E+03  0.7546771E-02  0.1103742E+00
         21   -1    0    0  502  501  0.00000000000E+00  0.00000000000E+00  0.49939137457E+03  0.49939137457E+03  0.00000000000E+00 0. -1.
         21   -1    0    0  501  502 -0.00000000000E+00 -0.00000000000E+00 -0.14140905743E+03  0.14140905743E+03  0.00000000000E+00 0. -1.
         25    1    1    2    0    0 -0.63337850416E+02 -0.32832798229E+02  0.14767625577E+02  0.14468157692E+03  0.12500000000E+03 0.  0.
         25    1    1    2    0    0 -0.67016027840E+02  0.66348019827E+02  0.81911737835E+02  0.17671372476E+03  0.12500000000E+03 0.  0.
         25    1    1    2    0    0  0.13035387826E+03 -0.33515221598E+02  0.26130295372E+03  0.31940513033E+03  0.12500000000E+03 0.  0.
</event>
<event>
 5    0  0.5803476E-005  0.3478729E+03  0.7546771E-02  0.1063491E+00
         21   -1    0    0  502  501  0.00000000000E+00  0.00000000000E+00  0.12805704677E+03  0.12805704677E+03  0.00000000000E+00 0. -1.
         21   -1    0    0  501  502 -0.00000000000E+00 -0.00000000000E+00 -0.94501288482E+03  0.94501288482E+03  0.00000000000E+00 0. -1.
         25    1    1    2    0    0 -0.34415285445E+01  0.12464208301E+03 -0.31582815880E+03  0.36182857663E+03  0.12500000000E+03 0.  0.
         25    1    1    2    0    0 -0.54674469817E+02 -0.49615788855E+02 -0.53185924695E+03  0.55131686236E+03  0.12500000000E+03 0.  0.
         25    1    1    2    0    0  0.58115998362E+02 -0.75026294154E+02  0.30731567694E+02  0.15992449260E+03  0.12500000000E+03 0.  0.
</event>
<event>
 5    0  0.5626800E-005  0.6552755E+03  0.7546771E-02  0.9796930E-01
         21   -1    0    0  502  501  0.00000000000E+00  0.00000000000E+00  0.28174496040E+03  0.28174496040E+03  0.00000000000E+00 0. -1.
         21   -1    0    0  501  502 -0.00000000000E+00 -0.00000000000E+00 -0.15240234932E+04  0.15240234932E+04  0.00000000000E+00 0. -1.
         25    1    1    2    0    0 -0.26916593768E+03  0.36639176485E+03 -0.71555469494E+03  0.85693450672E+03  0.12500000000E+03 0.  0.
         25    1    1    2    0    0  0.22885356475E+03 -0.49013661850E+03 -0.53112675624E+03  0.76832837387E+03  0.12500000000E+03 0.  0.
         25    1    1    2    0    0  0.40312372930E+02  0.12374485365E+03  0.44029183355E+01  0.18050557306E+03  0.12500000000E+03 0.  0.
</event>
<event>
 5    0  0.5626800E-005  0.2483839E+03  0.7546771E-02  0.1114330E+00
         21   -1    0    0  502  501  0.00000000000E+00  0.00000000000E+00  0.14563232015E+03  0.14563232015E+03  0.00000000000E+00 0.  1.
         21   -1    0    0  501  502 -0.00000000000E+00 -0.00000000000E+00 -0.42363223010E+03  0.42363223010E+03  0.00000000000E+00 0.  1.
         25    1    1    2    0    0 -0.76433977060E+02  0.70582432846E+02 -0.65057247843E+02  0.17516129188E+03  0.12500000000E+03 0.  0.
         25    1    1    2    0    0  0.31345741786E+01 -0.74464359198E+02 -0.11582572199E+02  0.14599288450E+03  0.12500000000E+03 0.  0.
         25    1    1    2    0    0  0.73299402882E+02  0.38819263522E+01 -0.20136008991E+03  0.24811037387E+03  0.12500000000E+03 0.  0.
</event>
<event>
 5    0  0.5626800E-005  0.2574997E+03  0.7546771E-02  0.1108655E+00
         21   -1    0    0  502  501  0.00000000000E+00  0.00000000000E+00  0.10262131768E+04  0.10262131768E+04  0.00000000000E+00 0. -1.
         21   -1    0    0  501  502 -0.00000000000E+00 -0.00000000000E+00 -0.64612407706E+02  0.64612407706E+02  0.00000000000E+00 0. -1.
         25    1    1    2    0    0 -0.64923957716E+01  0.47324755243E+01  0.22290578024E+03  0.25568835404E+03  0.12500000000E+03 0.  0.
         25    1    1    2    0    0  0.92974600453E+02 -0.11290605336E+03  0.27784664558E+03  0.33795829872E+03  0.12500000000E+03 0.  0.
         25    1    1    2    0    0 -0.86482204682E+02  0.10817357784E+03  0.46084834324E+03  0.49717893171E+03  0.12500000000E+03 0.  0.
</event>
<event>
 5    0  0.5626800E-005  0.3259388E+03  0.7546771E-02  0.1072948E+00
         21   -1    0    0  502  501  0.00000000000E+00  0.00000000000E+00  0.12183911653E+03  0.12183911653E+03  0.00000000000E+00 0. -1.
         21   -1    0    0  501  502 -0.00000000000E+00 -0.00000000000E+00 -0.87193772733E+03  0.87193772733E+03  0.00000000000E+00 0. -1.
         25    1    1    2    0    0  0.20780009191E+03  0.34807558725E+02 -0.52649491380E+03  0.58070159169E+03  0.12500000000E+03 0.  0.
         25    1    1    2    0    0 -0.91660353045E+02  0.22914049757E+02 -0.15478751166E+03  0.22025178266E+03  0.12500000000E+03 0.  0.
         25    1    1    2    0    0 -0.11613973886E+03 -0.57721608482E+02 -0.68816185336E+02  0.19282346951E+03  0.12500000000E+03 0.  0.
</event>
<event>
 5    0  0.5626800E-005  0.5591833E+03  0.7546771E-02  0.9993904E-01
         21   -1    0    0  502  501  0.00000000000E+00  0.00000000000E+00  0.14046359929E+03  0.14046359929E+03  0.00000000000E+00 0.  1.
         21   -1    0    0  501  502 -0.00000000000E+00 -0.00000000000E+00 -0.22260996267E+04  0.22260996267E+04  0.00000000000E+00 0.  1.
         25    1    1    2    0    0 -0.31903779681E+03  0.19841755915E+03 -0.86307459025E+03  0.94956694967E+03  0.12500000000E+03 0.  0.
         25    1    1    2    0    0  0.31749513769E+03 -0.59511029972E+02 -0.11738386689E+04  0.12238737458E+04  0.12500000000E+03 0.  0.
         25    1    1    2    0    0  0.15426591198E+01 -0.13890652918E+03 -0.48722768294E+02  0.19312253052E+03  0.12500000000E+03 0.  0.
</event>
<event>
 5    0  0.5626800E-005  0.4593434E+03  0.7546771E-02  0.1024972E+00
         21   -1    0    0  502  501  0.00000000000E+00  0.00000000000E+00  0.50098337170E+03  0.50098337170E+03  0.00000000000E+00 0. -1.
         21   -1    0    0  501  502 -0.00000000000E+00 -0.00000000000E+00 -0.42116431304E+03  0.42116431304E+03  0.00000000000E+00 0. -1.
         25    1    1    2    0    0  0.13575490658E+03  0.27965126912E+03 -0.36381816650E+02  0.33702056846E+03  0.12500000000E+03 0.  0.
         25    1    1    2    0    0 -0.27148146750E+03 -0.18716245624E+03  0.94825249065E+01  0.35277030842E+03  0.12500000000E+03 0.  0.
         25    1    1    2    0    0  0.13572656092E+03 -0.92488812878E+02  0.10671835040E+03  0.23235680786E+03  0.12500000000E+03 0.  0.
</event>
<event>
 5    0  0.5626800E-005  0.2875065E+03  0.7546771E-02  0.1091658E+00
         21   -1    0    0  502  501  0.00000000000E+00  0.00000000000E+00  0.63862786649E+02  0.63862786649E+02  0.00000000000E+00 0. -1.
         21   -1    0    0  501  502 -0.00000000000E+00 -0.00000000000E+00 -0.12943369138E+04  0.12943369138E+04  0.00000000000E+00 0. -1.
         25    1    1    2    0    0  0.12484070064E+03 -0.13445496602E+03 -0.40700064886E+03  0.46361391976E+03  0.12500000000E+03 0.  0.
         25    1    1    2    0    0  0.35789146121E+01  0.73854809261E+02 -0.49132512750E+03  0.51234043604E+03  0.12500000000E+03 0.  0.
         25    1    1    2    0    0 -0.12841961525E+03  0.60600156757E+02 -0.33214835080E+03  0.38224534466E+03  0.12500000000E+03 0.  0.
</event>
<event>
 5    0  0.5626800E-005  0.3301703E+03  0.7546771E-02  0.1071062E+00
         21   -1    0    0  502  501  0.00000000000E+00  0.00000000000E+00  0.41464284738E+03  0.41464284738E+03  0.00000000000E+00 0. -1.
         21   -1    0    0  501  502 -0.00000000000E+00 -0.00000000000E+00 -0.26290674948E+03  0.26290674948E+03  0.00000000000E+00 0. -1.
         25    1    1    2    0    0 -0.71966519199E+02  0.32597378594E+02 -0.10364112895E+03  0.18057755283E+03  0.12500000000E+03 0.  0.
         25    1    1    2    0    0 -0.51360702279E+02  0.98285896934E+02  0.21819167673E+03  0.27482839567E+03  0.12500000000E+03 0.  0.
         25    1    1    2    0    0  0.12332722148E+03 -0.13088327553E+03  0.37185550117E+02  0.22214364836E+03  0.12500000000E+03 0.  0.
</event>
<event>
 5    0  0.5626800E-005  0.3520051E+03  0.7546771E-02  0.1061795E+00
         21   -1    0    0  502  501  0.00000000000E+00  0.00000000000E+00  0.27856029816E+03  0.27856029816E+03  0.00000000000E+00 0. -1.
         21   -1    0    0  501  502 -0.00000000000E+00 -0.00000000000E+00 -0.44481428786E+03  0.44481428786E+03  0.00000000000E+00 0. -1.
         25    1    1    2    0    0 -0.39849765592E+02  0.14783684338E+03 -0.65214907983E+02  0.20813870448E+03  0.12500000000E+03 0.  0.
         25    1    1    2    0    0 -0.92327607957E+02  0.79538815702E+02 -0.13688553302E+03  0.22184106821E+03  0.12500000000E+03 0.  0.
         25    1    1    2    0    0  0.13217737355E+03 -0.22737565908E+03  0.35846451304E+02  0.29339481334E+03  0.12500000000E+03 0.  0.
</event>
<event>
 5    0  0.5626800E-005  0.2387354E+03  0.7546771E-02  0.1120638E+00
         21   -1    0    0  502  501  0.00000000000E+00  0.00000000000E+00  0.58683875022E+02  0.58683875022E+02  0.00000000000E+00 0.  1.
         21   -1    0    0  501  502 -0.00000000000E+00 -0.00000000000E+00 -0.97121383890E+03  0.97121383890E+03  0.00000000000E+00 0.  1.
         25    1    1    2    0    0  0.26923380541E+02 -0.11577979113E+03 -0.31637020994E+03  0.36034003135E+03  0.12500000000E+03 0.  0.
         25    1    1    2    0    0 -0.22736960279E+01  0.11715898648E+03 -0.40583355370E+03  0.44051931980E+03  0.12500000000E+03 0.  0.
         25    1    1    2    0    0 -0.24649684513E+02 -0.13791953491E+01 -0.19032620023E+03  0.22903836277E+03  0.12500000000E+03 0.  0.
</event>
<event>
 5    0  0.5626800E-005  0.2610763E+03  0.7546771E-02  0.1106498E+00
         21   -1    0    0  502  501  0.00000000000E+00  0.00000000000E+00  0.17197467388E+03  0.17197467388E+03  0.00000000000E+00 0.  1.
         21   -1    0    0  501  502 -0.00000000000E+00 -0.00000000000E+00 -0.39634212974E+03  0.39634212974E+03  0.00000000000E+00 0.  1.
         25    1    1    2    0    0 -0.31714044970E+02 -0.62185816657E+02  0.43363521967E+02  0.14959362112E+03  0.12500000000E+03 0.  0.
         25    1    1    2    0    0  0.76093191914E+02  0.61639499347E+02 -0.23237331836E+03  0.28144619525E+03  0.12500000000E+03 0.  0.
         25    1    1    2    0    0 -0.44379146944E+02  0.54631730978E+00 -0.35357659473E+02  0.13727698725E+03  0.12500000000E+03 0.  0.
</event>
<event>
 5    0  0.5626800E-005  0.3441439E+03  0.7546771E-02  0.1065045E+00
         21   -1    0    0  502  501  0.00000000000E+00  0.00000000000E+00  0.15710857766E+04  0.15710857766E+04  0.00000000000E+00 0. -1.
         21   -1    0    0  501  502 -0.00000000000E+00 -0.00000000000E+00 -0.75384201594E+02  0.75384201594E+02  0.00000000000E+00 0. -1.
         25    1    1    2    0    0 -0.15611658914E+03 -0.20358159776E+02  0.82626367359E+03  0.85036668701E+03  0.12500000000E+03 0.  0.
         25    1    1    2    0    0 -0.49356350987E+02 -0.22151333932E+02  0.44148059200E+03  0.46201390032E+03  0.12500000000E+03 0.  0.
         25    1    1    2    0    0  0.20547294012E+03  0.42509493708E+02  0.22795730944E+03  0.33408939089E+03  0.12500000000E+03 0.  0.
</event>
<event>
 5    0  0.5626800E-005  0.3188223E+03  0.7546771E-02  0.1076193E+00
         21   -1    0    0  502  501  0.00000000000E+00  0.00000000000E+00  0.11531823227E+03  0.11531823227E+03  0.00000000000E+00 0.  1.
         21   -1    0    0  501  502 -0.00000000000E+00 -0.00000000000E+00 -0.88145339875E+03  0.88145339875E+03  0.00000000000E+00 0.  1.
         25    1    1    2    0    0  0.52816680253E+02 -0.58065281974E+01 -0.24110162484E+02  0.13794787935E+03  0.12500000000E+03 0.  0.
         25    1    1    2    0    0  0.14458048600E+03  0.95625495115E-01 -0.25550907359E+03  0.31908214109E+03  0.12500000000E+03 0.  0.
         25    1    1    2    0    0 -0.19739716626E+03  0.57109027023E+01 -0.48651593040E+03  0.53974161058E+03  0.12500000000E+03 0.  0.
</event>
<event>
 5    0  0.5626800E-005  0.3163584E+03  0.7546771E-02  0.1077338E+00
         21   -1    0    0  502  501  0.00000000000E+00  0.00000000000E+00  0.42245829234E+03  0.42245829234E+03  0.00000000000E+00 0. -1.
         21   -1    0    0  501  502 -0.00000000000E+00 -0.00000000000E+00 -0.23690541642E+03  0.23690541642E+03  0.00000000000E+00 0. -1.
         25    1    1    2    0    0 -0.17714026332E+02  0.16005659011E+03 -0.98182577098E+02  0.22626691586E+03  0.12500000000E+03 0.  0.
         25    1    1    2    0    0  0.68001740567E+02 -0.77466216515E+02  0.98517742305E+02  0.18962066599E+03  0.12500000000E+03 0.  0.
         25    1    1    2    0    0 -0.50287714235E+02 -0.82590373600E+02  0.18521771071E+03  0.24347612691E+03  0.12500000000E+03 0.  0.
</event>
<event>
 5    0  0.5626800E-005  0.3430775E+03  0.7546771E-02  0.1065493E+00
         21   -1    0    0  502  501  0.00000000000E+00  0.00000000000E+00  0.30303463005E+03  0.30303463005E+03  0.00000000000E+00 0.  1.
         21   -1    0    0  501  502 -0.00000000000E+00 -0.00000000000E+00 -0.38841153836E+03  0.38841153836E+03  0.00000000000E+00 0.  1.
         25    1    1    2    0    0  0.20338939533E+02 -0.48161527648E+02  0.11691433153E+03  0.17896135371E+03  0.12500000000E+03 0.  0.
         25    1    1    2    0    0 -0.18695248884E+03  0.69548572386E+02 -0.19039743000E+03  0.30276132242E+03  0.12500000000E+03 0.  0.
         25    1    1    2    0    0  0.16661354931E+03 -0.21387044738E+02 -0.11893809839E+02  0.20972349227E+03  0.12500000000E+03 0.  0.
</event>
<event>
 5    0  0.5626800E-005  0.3319690E+03  0.7546771E-02  0.1070269E+00
         21   -1    0    0  502  501  0.00000000000E+00  0.00000000000E+00  0.36202043791E+03  0.36202043791E+03  0.00000000000E+00 0.  1.
         21   -1    0    0  501  502 -0.00000000000E+00 -0.00000000000E+00 -0.30441223155E+03  0.30441223155E+03  0.00000000000E+00 0.  1.
         25    1    1    2    0    0  0.37622732040E+02  0.14762424906E+03 -0.70248146854E+02  0.20920848695E+03  0.12500000000E+03 0.  0.
         25    1    1    2    0    0  0.10669336385E+03  0.19130813680E+02  0.11858476740E+03  0.20356033253E+03  0.12500000000E+03 0.  0.
         25    1    1    2    0    0 -0.14431609589E+03 -0.16675506274E+03  0.92715858092E+01  0.25366384997E+03  0.12500000000E+03 0.  0.
</event>
<event>
 5    0  0.5626800E-005  0.2498359E+03  0.7546771E-02  0.1113409E+00
         21   -1    0    0  502  501  0.00000000000E+00  0.00000000000E+00  0.12149382791E+03  0.12149382791E+03  0.00000000000E+00 0.  1.
         21   -1    0    0  501  502 -0.00000000000E+00 -0.00000000000E+00 -0.51375429691E+03  0.51375429691E+03  0.00000000000E+00 0.  1.
         25    1    1    2    0    0 -0.90604435550E+02 -0.31943948011E+02 -0.78420447599E+02  0.17608051044E+03  0.12500000000E+03 0.  0.
         25    1    1    2    0    0 -0.20831464875E+02  0.76456915791E+02 -0.80349470205E+02  0.16840619722E+03  0.12500000000E+03 0.  0.
         25    1    1    2    0    0  0.11143590042E+03 -0.44512967780E+02 -0.23349055120E+03  0.29076141715E+03  0.12500000000E+03 0.  0.
</event>
<event>
 5    0  0.5626800E-005  0.3197583E+03  0.7546771E-02  0.1075761E+00
         21   -1    0    0  502  501  0.00000000000E+00  0.00000000000E+00  0.67186316283E+02  0.67186316283E+02  0.00000000000E+00 0.  1.
         21   -1    0    0  501  502 -0.00000000000E+00 -0.00000000000E+00 -0.15218186049E+04  0.15218186049E+04  0.00000000000E+00 0.  1.
         25    1    1    2    0    0 -0.13399210225E+03 -0.53236216979E+02 -0.21010623945E+03  0.28382672552E+03  0.12500000000E+03 0.  0.
         25    1    1    2    0    0 -0.11032436909E+01  0.10991168657E+03 -0.85016057867E+03  0.86630237534E+03  0.12500000000E+03 0.  0.
         25    1    1    2    0    0  0.13509534594E+03 -0.56675469587E+02 -0.39436547046E+03  0.43887582029E+03  0.12500000000E+03 0.  0.
</event>
<event>
 5    0  0.5626800E-005  0.3800911E+03  0.7546771E-02  0.1050900E+00
         21   -1    0    0  502  501  0.00000000000E+00  0.00000000000E+00  0.78392886026E+03  0.78392886026E+03  0.00000000000E+00 0. -1.
         21   -1    0    0  501  502 -0.00000000000E+00 -0.00000000000E+00 -0.18428868829E+03  0.18428868829E+03  0.00000000000E+00 0. -1.
         25    1    1    2    0    0 -0.28963005303E+02  0.25030447314E+03  0.32492111252E+03  0.42975564488E+03  0.12500000000E+03 0.  0.
         25    1    1    2    0    0 -0.79247147359E+01 -0.24590313758E+03  0.52658718533E+02  0.28094322347E+03  0.12500000000E+03 0.  0.
         25    1    1    2    0    0  0.36887720039E+02 -0.44013355536E+01  0.22206034092E+03  0.25751868020E+03  0.12500000000E+03 0.  0.
</event>
<event>
 5    0  0.5626800E-005  0.3559832E+03  0.7546771E-02  0.1060186E+00
         21   -1    0    0  502  501  0.00000000000E+00  0.00000000000E+00  0.26291482258E+03  0.26291482258E+03  0.00000000000E+00 0. -1.
         21   -1    0    0  501  502 -0.00000000000E+00 -0.00000000000E+00 -0.48199656905E+03  0.48199656905E+03  0.00000000000E+00 0. -1.
         25    1    1    2    0    0 -0.80228619661E+02  0.57530098613E+02 -0.11684301015E+03  0.19754400189E+03  0.12500000000E+03 0.  0.
         25    1    1    2    0    0  0.65496123490E+02 -0.68472083982E+02  0.17963294992E+03  0.23847676024E+03  0.12500000000E+03 0.  0.
         25    1    1    2    0    0  0.14732496170E+02  0.10941985369E+02 -0.28187168624E+03  0.30889062950E+03  0.12500000000E+03 0.  0.
</event>
<event>
 5    0  0.5626800E-005  0.3565365E+03  0.7546771E-02  0.1059964E+00
         21   -1    0    0  502  501  0.00000000000E+00  0.00000000000E+00  0.10112322281E+03  0.10112322281E+03  0.00000000000E+00 0. -1.
         21   -1    0    0  501  502 -0.00000000000E+00 -0.00000000000E+00 -0.12570628138E+04  0.12570628138E+04  0.00000000000E+00 0. -1.
         25    1    1    2    0    0 -0.18664903643E+03  0.16255887362E+03 -0.33712858073E+03  0.43651337910E+03  0.12500000000E+03 0.  0.
         25    1    1    2    0    0  0.18259446885E+03 -0.41802092118E+02 -0.30416897093E+03  0.37845992897E+03  0.12500000000E+03 0.  0.
         25    1    1    2    0    0  0.40545675784E+01 -0.12075678150E+03 -0.51464203929E+03  0.54321272849E+03  0.12500000000E+03 0.  0.
</event>
<event>
 5    0  0.5626800E-005  0.3109413E+03  0.7546771E-02  0.1079896E+00
         21   -1    0    0  502  501  0.00000000000E+00  0.00000000000E+00  0.98721957572E+03  0.98721957572E+03  0.00000000000E+00 0.  1.
         21   -1    0    0  501  502 -0.00000000000E+00 -0.00000000000E+00 -0.97936127675E+02  0.97936127675E+02  0.00000000000E+00 0.  1.
         25    1    1    2    0    0 -0.50024415987E+02 -0.57835623467E+02  0.40001292110E+03  0.42600790906E+03  0.12500000000E+03 0.  0.
         25    1    1    2    0    0  0.11731419617E+03 -0.69051889179E+02  0.41587024620E+03  0.45508663537E+03  0.12500000000E+03 0.  0.
         25    1    1    2    0    0 -0.67289780179E+02  0.12688751265E+03  0.73400280743E+02  0.20406115896E+03  0.12500000000E+03 0.  0.
</event>
<event>
 5    0  0.5626800E-005  0.2511272E+03  0.7546771E-02  0.1112595E+00
         21   -1    0    0  502  501  0.00000000000E+00  0.00000000000E+00  0.93308027565E+02  0.93308027565E+02  0.00000000000E+00 0. -1.
         21   -1    0    0  501  502 -0.00000000000E+00 -0.00000000000E+00 -0.67587825021E+03  0.67587825021E+03  0.00000000000E+00 0. -1.
         25    1    1    2    0    0  0.11976818984E+03  0.73186420714E+01 -0.35837160955E+03  0.39806179464E+03  0.12500000000E+03 0.  0.
         25    1    1    2    0    0 -0.97355361072E+01  0.17103791357E+02 -0.11063178450E+03  0.16808245621E+03  0.12500000000E+03 0.  0.
         25    1    1    2    0    0 -0.11003265374E+03 -0.24422433429E+02 -0.11356682859E+03  0.20304202693E+03  0.12500000000E+03 0.  0.
</event>
<event>
 5    0  0.5626800E-005  0.4387931E+03  0.7546771E-02  0.1031118E+00
         21   -1    0    0  502  501  0.00000000000E+00  0.00000000000E+00  0.33594980090E+03  0.33594980090E+03  0.00000000000E+00 0.  1.
         21   -1    0    0  501  502 -0.00000000000E+00 -0.00000000000E+00 -0.57311945494E+03  0.57311945494E+03  0.00000000000E+00 0.  1.
         25    1    1    2    0    0  0.24391023727E+02  0.33701532726E+02 -0.11077807448E+03  0.17212639870E+03  0.12500000000E+03 0.  0.
         25    1    1    2    0    0  0.26119363539E+02 -0.25166012000E+02  0.27995372580E+03  0.30873068831E+03  0.12500000000E+03 0.  0.
         25    1    1    2    0    0 -0.50510387266E+02 -0.85355207255E+01 -0.40634530537E+03  0.42821216883E+03  0.12500000000E+03 0.  0.
</event>
<event>
 5    0  0.5626800E-005  0.3004599E+03  0.7546771E-02  0.1085011E+00
         21   -1    0    0  502  501  0.00000000000E+00  0.00000000000E+00  0.37181460169E+03  0.37181460169E+03  0.00000000000E+00 0.  1.
         21   -1    0    0  501  502 -0.00000000000E+00 -0.00000000000E+00 -0.24279878332E+03  0.24279878332E+03  0.00000000000E+00 0.  1.
         25    1    1    2    0    0  0.64003225699E+02 -0.50120085239E+02  0.70681874049E+02  0.16501322118E+03  0.12500000000E+03 0.  0.
         25    1    1    2    0    0  0.81061343014E+02  0.10087563287E+03  0.14721309930E+03  0.23247264623E+03  0.12500000000E+03 0.  0.
         25    1    1    2    0    0 -0.14506456871E+03 -0.50755547630E+02 -0.88879154985E+02  0.21712751761E+03  0.12500000000E+03 0.  0.
</event>
<event>
 5    0  0.5626800E-005  0.4277842E+03  0.7546771E-02  0.1034562E+00
         21   -1    0    0  502  501  0.00000000000E+00  0.00000000000E+00  0.35989310412E+03  0.35989310412E+03  0.00000000000E+00 0.  1.
         21   -1    0    0  501  502 -0.00000000000E+00 -0.00000000000E+00 -0.50848252498E+03  0.50848252498E+03  0.00000000000E+00 0.  1.
         25    1    1    2    0    0 -0.12581715313E+01  0.34168319007E+03  0.47966488176E+02  0.36698061169E+03  0.12500000000E+03 0.  0.
         25    1    1    2    0    0  0.62469657543E+02 -0.15221652689E+03 -0.20424143171E+02  0.20764025331E+03  0.12500000000E+03 0.  0.
         25    1    1    2    0    0 -0.61211486011E+02 -0.18946666318E+03 -0.17613176587E+03  0.29375476409E+03  0.12500000000E+03 0.  0.
</event>
<event>
 5    0  0.5626800E-005  0.3590481E+03  0.7546771E-02  0.1058961E+00
         21   -1    0    0  502  501  0.00000000000E+00  0.00000000000E+00  0.42705177495E+03  0.42705177495E+03  0.00000000000E+00 0. -1.
         21   -1    0    0  501  502 -0.00000000000E+00 -0.00000000000E+00 -0.30187331631E+03  0.30187331631E+03  0.00000000000E+00 0. -1.
         25    1    1    2    0    0 -0.18348551692E+02 -0.68558186169E+02 -0.18824958086E+03  0.23685396119E+03  0.12500000000E+03 0.  0.
         25    1    1    2    0    0 -0.12498061016E+03  0.67179090496E+02  0.15209347678E+03  0.24267387332E+03  0.12500000000E+03 0.  0.
         25    1    1    2    0    0  0.14332916185E+03  0.13790956728E+01  0.16133456272E+03  0.24939725674E+03  0.12500000000E+03 0.  0.
</event>
<event>
 5    0  0.5626800E-005  0.3398810E+03  0.7546771E-02  0.1066847E+00
         21   -1    0    0  502  501  0.00000000000E+00  0.00000000000E+00  0.10529432742E+03  0.10529432742E+03  0.00000000000E+00 0. -1.
         21   -1    0    0  501  502 -0.00000000000E+00 -0.00000000000E+00 -0.10971064987E+04  0.10971064987E+04  0.00000000000E+00 0. -1.
         25    1    1    2    0    0  0.53268010172E+02 -0.82013444865E+02 -0.11908310937E+03  0.19841742107E+03  0.12500000000E+03 0.  0.
         25    1    1    2    0    0  0.13224402735E+03 -0.84468809673E+02 -0.49797384291E+03  0.53686721897E+03  0.12500000000E+03 0.  0.
         25    1    1    2    0    0 -0.18551203752E+03  0.16648225454E+03 -0.37475521904E+03  0.46711618613E+03  0.12500000000E+03 0.  0.
</event>
<event>
 5    0  0.5847573E-005  0.3673348E+03  0.7546771E-02  0.1055717E+00
         21   -1    0    0  502  501  0.00000000000E+00  0.00000000000E+00  0.40333647888E+03  0.40333647888E+03  0.00000000000E+00 0. -1.
         21   -1    0    0  501  502 -0.00000000000E+00 -0.00000000000E+00 -0.33454654629E+03  0.33454654629E+03  0.00000000000E+00 0. -1.
         25    1    1    2    0    0 -0.69101919246E+02 -0.41019959156E+02  0.20784931989E+03  0.25550744035E+03  0.12500000000E+03 0.  0.
         25    1    1    2    0    0 -0.14811184026E+03  0.52084803845E+01 -0.12107475290E+03  0.22857896072E+03  0.12500000000E+03 0.  0.
         25    1    1    2    0    0  0.21721375951E+03  0.35811478772E+02 -0.17984634404E+02  0.25379662410E+03  0.12500000000E+03 0.  0.
</event>
<event>
 5    0  0.5626800E-005  0.2657046E+03  0.7546771E-02  0.1103763E+00
         21   -1    0    0  502  501  0.00000000000E+00  0.00000000000E+00  0.85289296020E+03  0.85289296020E+03  0.00000000000E+00 0. -1.
         21   -1    0    0  501  502 -0.00000000000E+00 -0.00000000000E+00 -0.82775846115E+02  0.82775846115E+02  0.00000000000E+00 0. -1.
         25    1    1    2    0    0  0.10452371615E+03 -0.44618566868E+02  0.15501457477E+03  0.22928266864E+03  0.12500000000E+03 0.  0.
         25    1    1    2    0    0 -0.12353924624E+03 -0.38807023609E+02  0.43678306445E+03  0.47241123593E+03  0.12500000000E+03 0.  0.
         25    1    1    2    0    0  0.19015530082E+02  0.83425590477E+02  0.17831947486E+03  0.23397490175E+03  0.12500000000E+03 0.  0.
</event>
<event>
 5    0  0.5626800E-005  0.4295802E+03  0.7546771E-02  0.1033993E+00
         21   -1    0    0  502  501  0.00000000000E+00  0.00000000000E+00  0.63764073165E+03  0.63764073165E+03  0.00000000000E+00 0.  1.
         21   -1    0    0  501  502 -0.00000000000E+00 -0.00000000000E+00 -0.28940929409E+03  0.28940929409E+03  0.00000000000E+00 0. -1.
         25    1    1    2    0    0 -0.82909586531E+02 -0.17008924401E+03  0.33201393052E+03  0.40207287962E+03  0.12500000000E+03 0.  0.
         25    1    1    2    0    0 -0.64903985139E+00 -0.11309634439E+03  0.96789700777E+02  0.19438222795E+03  0.12500000000E+03 0.  0.
         25    1    1    2    0    0  0.83558626383E+02  0.28318558840E+03 -0.80572193735E+02  0.33059491818E+03  0.12500000000E+03 0.  0.
</event>
<event>
 5    0  0.5747331E-005  0.3036322E+03  0.7546771E-02  0.1083439E+00
         21   -1    0    0  502  501  0.00000000000E+00  0.00000000000E+00  0.35786735236E+03  0.35786735236E+03  0.00000000000E+00 0.  1.
         21   -1    0    0  501  502 -0.00000000000E+00 -0.00000000000E+00 -0.25761638880E+03  0.25761638880E+03  0.00000000000E+00 0.  1.
         25    1    1    2    0    0  0.10831651886E+03  0.14321031226E+03  0.11900728163E+03  0.24905701130E+03  0.12500000000E+03 0.  0.
         25    1    1    2    0    0 -0.14424526840E+03 -0.33558398309E+02 -0.29221782580E+02  0.19598922452E+03  0.12500000000E+03 0.  0.
         25    1    1    2    0    0  0.35928749541E+02 -0.10965191395E+03  0.10465464504E+02  0.17043750533E+03  0.12500000000E+03 0.  0.
</event>
<event>
 5    0  0.5626800E-005  0.2267611E+03  0.7546771E-02  0.1128940E+00
         21   -1    0    0  502  501  0.00000000000E+00  0.00000000000E+00  0.86030649872E+02  0.86030649872E+02  0.00000000000E+00 0.  1.
         21   -1    0    0  501  502 -0.00000000000E+00 -0.00000000000E+00 -0.59770103522E+03  0.59770103522E+03  0.00000000000E+00 0.  1.
         25    1    1    2    0    0 -0.42144976965E+02  0.15807137398E+02 -0.17022189684E+03  0.21593183841E+03  0.12500000000E+03 0.  0.
         25    1    1    2    0    0  0.62538024989E+02  0.61412967464E+02 -0.93971292822E+02  0.17927119405E+03  0.12500000000E+03 0.  0.
         25    1    1    2    0    0 -0.20393048024E+02 -0.77220104862E+02 -0.24747719569E+03  0.28852865263E+03  0.12500000000E+03 0.  0.
</event>
<event>
 5    0  0.5626800E-005  0.3166269E+03  0.7546771E-02  0.1077212E+00
         21   -1    0    0  502  501  0.00000000000E+00  0.00000000000E+00  0.11262037648E+03  0.11262037648E+03  0.00000000000E+00 0.  1.
         21   -1    0    0  501  502 -0.00000000000E+00 -0.00000000000E+00 -0.89018174466E+03  0.89018174466E+03  0.00000000000E+00 0.  1.
         25    1    1    2    0    0 -0.44333321604E+02  0.58405443398E+02 -0.51816291504E+02  0.15390440958E+03  0.12500000000E+03 0.  0.
         25    1    1    2    0    0 -0.15558278604E+03 -0.42049958113E+02 -0.34325047770E+03  0.39927445790E+03  0.12500000000E+03 0.  0.
         25    1    1    2    0    0  0.19991610764E+03 -0.16355485285E+02 -0.38249459897E+03  0.44962325366E+03  0.12500000000E+03 0.  0.
</event>
<event>
 5    0  0.5626800E-005  0.3386835E+03  0.7546771E-02  0.1067358E+00
         21   -1    0    0  502  501  0.00000000000E+00  0.00000000000E+00  0.26495304929E+03  0.26495304929E+03  0.00000000000E+00 0. -1.
         21   -1    0    0  501  502 -0.00000000000E+00 -0.00000000000E+00 -0.43293152704E+03  0.43293152704E+03  0.00000000000E+00 0. -1.
         25    1    1    2    0    0 -0.22330949351E+02 -0.27225568864E+02 -0.29064038988E+03  0.31833431975E+03  0.12500000000E+03 0.  0.
         25    1    1    2    0    0 -0.50338925880E+02  0.11860034691E+03  0.10407662863E+03  0.20750179366E+03  0.12500000000E+03 0.  0.
         25    1    1    2    0    0  0.72669875231E+02 -0.91374778047E+02  0.18585283501E+02  0.17204846292E+03  0.12500000000E+03 0.  0.
</event>
<event>
 5    0  0.5626800E-005  0.2548381E+03  0.7546771E-02  0.1110285E+00
         21   -1    0    0  502  501  0.00000000000E+00  0.00000000000E+00  0.32307370764E+03  0.32307370764E+03  0.00000000000E+00 0. -1.
         21   -1    0    0  501  502 -0.00000000000E+00 -0.00000000000E+00 -0.20101431637E+03  0.20101431637E+03  0.00000000000E+00 0. -1.
         25    1    1    2    0    0 -0.38997686008E+01  0.46322495554E+02  0.51190895474E+01  0.13346230504E+03  0.12500000000E+03 0.  0.
         25    1    1    2    0    0  0.12625170994E+03  0.31532784294E+02  0.69621955910E+02  0.19340637914E+03  0.12500000000E+03 0.  0.
         25    1    1    2    0    0 -0.12235194134E+03 -0.77855279848E+02  0.47318345813E+02  0.19721933982E+03  0.12500000000E+03 0.  0.
</event>
<event>
 5    0  0.5626800E-005  0.2865762E+03  0.7546771E-02  0.1092150E+00
         21   -1    0    0  502  501  0.00000000000E+00  0.00000000000E+00  0.41301362137E+03  0.41301362137E+03  0.00000000000E+00 0. -1.
         21   -1    0    0  501  502 -0.00000000000E+00 -0.00000000000E+00 -0.19884554152E+03  0.19884554152E+03  0.00000000000E+00 0. -1.
         25    1    1    2    0    0  0.48467840307E+02  0.22830485398E+02  0.10231890643E+03  0.17018966250E+03  0.12500000000E+03 0.  0.
         25    1    1    2    0    0  0.11548480200E+02 -0.17405841239E+03  0.98304916138E+02  0.23604778088E+03  0.12500000000E+03 0.  0.
         25    1    1    2    0    0 -0.60016320507E+02  0.15122792699E+03  0.13544257285E+02  0.20562171951E+03  0.12500000000E+03 0.  0.
</event>
<event>
 5    0  0.5626800E-005  0.2976233E+03  0.7546771E-02  0.1086435E+00
         21   -1    0    0  502  501  0.00000000000E+00  0.00000000000E+00  0.64011709295E+03  0.64011709295E+03  0.00000000000E+00 0. -1.
         21   -1    0    0  501  502 -0.00000000000E+00 -0.00000000000E+00 -0.13838033251E+03  0.13838033251E+03  0.00000000000E+00 0. -1.
         25    1    1    2    0    0 -0.19274806267E+03  0.26736389762E+02  0.15249999810E+03  0.27703411274E+03  0.12500000000E+03 0.  0.
         25    1    1    2    0    0  0.17894246916E+03 -0.54673232578E+02  0.26449881375E+03  0.34726674489E+03  0.12500000000E+03 0.  0.
         25    1    1    2    0    0  0.13805593508E+02  0.27936842816E+02  0.84737948604E+02  0.15419656784E+03  0.12500000000E+03 0.  0.
</event>
<event>
 5    0  0.5626800E-005  0.4044698E+03  0.7546771E-02  0.1042243E+00
         21   -1    0    0  502  501  0.00000000000E+00  0.00000000000E+00  0.56469829268E+03  0.56469829268E+03  0.00000000000E+00 0.  1.
         21   -1    0    0  501  502 -0.00000000000E+00 -0.00000000000E+00 -0.28970477085E+03  0.28970477085E+03  0.00000000000E+00 0.  1.
         25    1    1    2    0    0  0.10266880222E+03 -0.36054635235E+02  0.90275476453E+02  0.18872064360E+03  0.12500000000E+03 0.  0.
         25    1    1    2    0    0 -0.13585822827E+03 -0.17129770076E+03  0.30315326413E+03  0.39411579774E+03  0.12500000000E+03 0.  0.
         25    1    1    2    0    0  0.33189426048E+02  0.20735233600E+03 -0.11843521875E+03  0.27156662219E+03  0.12500000000E+03 0.  0.
</event>
<event>
 5    0  0.5626800E-005  0.3288314E+03  0.7546771E-02  0.1071655E+00
         21   -1    0    0  502  501  0.00000000000E+00  0.00000000000E+00  0.25435418827E+04  0.25435418827E+04  0.00000000000E+00 0. -1.
         21   -1    0    0  501  502 -0.00000000000E+00 -0.00000000000E+00 -0.42511610857E+02  0.42511610857E+02  0.00000000000E+00 0. -1.
         25    1    1    2    0    0 -0.19244593398E+03  0.14048509284E+03  0.14697985396E+04  0.14942236264E+04  0.12500000000E+03 0.  0.
         25    1    1    2    0    0  0.12651740461E+03 -0.82471699014E+02  0.70239981662E+03  0.72924532031E+03  0.12500000000E+03 0.  0.
         25    1    1    2    0    0  0.65928529370E+02 -0.58013393829E+02  0.32883191566E+03  0.36258454684E+03  0.12500000000E+03 0.  0.
</event>
<event>
 5    0  0.5626800E-005  0.2721562E+03  0.7546771E-02  0.1100052E+00
         21   -1    0    0  502  501  0.00000000000E+00  0.00000000000E+00  0.20821296249E+03  0.20821296249E+03  0.00000000000E+00 0.  1.
         21   -1    0    0  501  502 -0.00000000000E+00 -0.00000000000E+00 -0.35573663220E+03  0.35573663220E+03  0.00000000000E+00 0.  1.
         25    1    1    2    0    0 -0.67279552208E+02 -0.59112981795E+01 -0.10159525758E+03  0.17466561755E+03  0.12500000000E+03 0.  0.
         25    1    1    2    0    0  0.13610727979E+03  0.91853933432E+02  0.25694454493E+02  0.20796043299E+03  0.12500000000E+03 0.  0.
         25    1    1    2    0    0 -0.68827727583E+02 -0.85942635252E+02 -0.71622866619E+02  0.18132354414E+03  0.12500000000E+03 0.  0.
</event>
<event>
 5    0  0.5626800E-005  0.4791430E+03  0.7546771E-02  0.1019371E+00
         21   -1    0    0  502  501  0.00000000000E+00  0.00000000000E+00  0.15463223101E+03  0.15463223101E+03  0.00000000000E+00 0.  1.
         21   -1    0    0  501  502 -0.00000000000E+00 -0.00000000000E+00 -0.14846712628E+04  0.14846712628E+04  0.00000000000E+00 0.  1.
         25    1    1    2    0    0  0.23914026019E+02 -0.15100151666E+03  0.23657104679E+02  0.19889192361E+03  0.12500000000E+03 0.  0.
         25    1    1    2    0    0  0.12517166970E+00  0.41494707387E+02 -0.76678842439E+02  0.15240233360E+03  0.12500000000E+03 0.  0.
         25    1    1    2    0    0 -0.24039197689E+02  0.10950680928E+03 -0.12770172940E+04  0.12880092366E+04  0.12500000000E+03 0.  0.
</event>
<event>
 5    0  0.5626800E-005  0.6861580E+03  0.7546771E-02  0.9741201E-01
         21   -1    0    0  502  501  0.00000000000E+00  0.00000000000E+00  0.53183435299E+03  0.53183435299E+03  0.00000000000E+00 0.  1.
         21   -1    0    0  501  502 -0.00000000000E+00 -0.00000000000E+00 -0.88526206649E+03  0.88526206649E+03  0.00000000000E+00 0.  1.
         25    1    1    2    0    0  0.28304003503E+03  0.39049915820E+03 -0.22553322221E+03  0.54689257474E+03  0.12500000000E+03 0.  0.
         25    1    1    2    0    0  0.18326544897E+03 -0.29386988013E+03 -0.64246570863E+02  0.37376242869E+03  0.12500000000E+03 0.  0.
         25    1    1    2    0    0 -0.46630548400E+03 -0.96629278069E+02 -0.63647920428E+02  0.49644141605E+03  0.12500000000E+03 0.  0.
</event>
<event>
 5    0  0.5626800E-005  0.3487189E+03  0.7546771E-02  0.1063142E+00
         21   -1    0    0  502  501  0.00000000000E+00  0.00000000000E+00  0.11881650533E+04  0.11881650533E+04  0.00000000000E+00 0. -1.
         21   -1    0    0  501  502 -0.00000000000E+00 -0.00000000000E+00 -0.10234680521E+03  0.10234680521E+03  0.00000000000E+00 0. -1.
         25    1    1    2    0    0 -0.12305271252E+03 -0.16430872625E+02  0.44421529441E+02  0.18168713744E+03  0.12500000000E+03 0.  0.
         25    1    1    2    0    0  0.13618184986E+03 -0.91643802835E+02  0.69195119354E+03  0.72205646391E+03  0.12500000000E+03 0.  0.
         25    1    1    2    0    0 -0.13129137336E+02  0.10807467546E+03  0.34944552509E+03  0.38676825713E+03  0.12500000000E+03 0.  0.
</event>
<event>
 5    0  0.5626800E-005  0.2714890E+03  0.7546771E-02  0.1100430E+00
         21   -1    0    0  502  501  0.00000000000E+00  0.00000000000E+00  0.19375234474E+04  0.19375234474E+04  0.00000000000E+00 0.  1.
         21   -1    0    0  501  502 -0.00000000000E+00 -0.00000000000E+00 -0.38041484072E+02  0.38041484072E+02  0.00000000000E+00 0.  1.
         25    1    1    2    0    0 -0.14100210963E+03 -0.65650830478E+02  0.47639738332E+03  0.51649888025E+03  0.12500000000E+03 0.  0.
         25    1    1    2    0    0  0.10146406116E+03  0.85307014440E+02  0.97093436946E+03  0.98788197282E+03  0.12500000000E+03 0.  0.
         25    1    1    2    0    0  0.39538048467E+02 -0.19656183962E+02  0.45215021054E+03  0.47118407840E+03  0.12500000000E+03 0.  0.
</event>
<event>
 5    0  0.5626800E-005  0.4962861E+03  0.7546771E-02  0.1014753E+00
         21   -1    0    0  502  501  0.00000000000E+00  0.00000000000E+00  0.36077993641E+03  0.36077993641E+03  0.00000000000E+00 0. -1.
         21   -1    0    0  501  502 -0.00000000000E+00 -0.00000000000E+00 -0.68268727097E+03  0.68268727097E+03  0.00000000000E+00 0.  1.
         25    1    1    2    0    0 -0.65828458881E+02 -0.20905107237E+03 -0.52725533419E+03  0.58451597437E+03  0.12500000000E+03 0.  0.
         25    1    1    2    0    0 -0.56435478497E+02  0.19025627059E+03  0.11371611226E+03  0.26065065877E+03  0.12500000000E+03 0.  0.
         25    1    1    2    0    0  0.12226393738E+03  0.18794801776E+02  0.91631887376E+02  0.19830057423E+03  0.12500000000E+03 0.  0.
</event>
<event>
 5    0  0.5626800E-005  0.3695543E+03  0.7546771E-02  0.1054864E+00
         21   -1    0    0  502  501  0.00000000000E+00  0.00000000000E+00  0.64038942065E+03  0.64038942065E+03  0.00000000000E+00 0.  1.
         21   -1    0    0  501  502 -0.00000000000E+00 -0.00000000000E+00 -0.21326145276E+03  0.21326145276E+03  0.00000000000E+00 0.  1.
         25    1    1    2    0    0 -0.98156439738E+02  0.66554852503E+02 -0.58301929281E+02  0.18190203411E+03  0.12500000000E+03 0.  0.
         25    1    1    2    0    0  0.32782004816E+01  0.36183380825E+02 -0.20857361699E+02  0.13183327798E+03  0.12500000000E+03 0.  0.
         25    1    1    2    0    0  0.94878239257E+02 -0.10273823333E+03  0.50628725886E+03  0.53991556132E+03  0.12500000000E+03 0.  0.
</event>
<event>
 5    0  0.5626800E-005  0.2380199E+03  0.7546771E-02  0.1121119E+00
         21   -1    0    0  502  501  0.00000000000E+00  0.00000000000E+00  0.29220282806E+03  0.29220282806E+03  0.00000000000E+00 0.  1.
         21   -1    0    0  501  502 -0.00000000000E+00 -0.00000000000E+00 -0.19388407243E+03  0.19388407243E+03  0.00000000000E+00 0.  1.
         25    1    1    2    0    0  0.44216707257E+02 -0.55057240058E+02  0.96474043255E+02  0.17297010697E+03  0.12500000000E+03 0.  0.
         25    1    1    2    0    0  0.10733641014E+02 -0.54153697893E+02  0.16574871091E+02  0.13765013766E+03  0.12500000000E+03 0.  0.
         25    1    1    2    0    0 -0.54950348271E+02  0.10921093795E+03 -0.14730158714E+02  0.17546665586E+03  0.12500000000E+03 0.  0.
</event>
<event>
 5    0  0.5626800E-005  0.3405853E+03  0.7546771E-02  0.1066547E+00
         21   -1    0    0  502  501  0.00000000000E+00  0.00000000000E+00  0.47644236127E+03  0.47644236127E+03  0.00000000000E+00 0.  1.
         21   -1    0    0  501  502 -0.00000000000E+00 -0.00000000000E+00 -0.24346775552E+03  0.24346775552E+03  0.00000000000E+00 0.  1.
         25    1    1    2    0    0  0.16541017210E+03  0.17038359113E+02  0.22391918980E+03  0.30563971319E+03  0.12500000000E+03 0.  0.
         25    1    1    2    0    0 -0.79098369398E+02 -0.13566602059E+03 -0.60071886199E+02  0.20951241656E+03  0.12500000000E+03 0.  0.
         25    1    1    2    0    0 -0.86311802703E+02  0.11862766147E+03  0.69127302145E+02  0.20475798703E+03  0.12500000000E+03 0.  0.
</event>
<event>
 5    0  0.5626800E-005  0.2761810E+03  0.7546771E-02  0.1097793E+00
         21   -1    0    0  502  501  0.00000000000E+00  0.00000000000E+00  0.61372559926E+03  0.61372559926E+03  0.00000000000E+00 0.  1.
         21   -1    0    0  501  502 -0.00000000000E+00 -0.00000000000E+00 -0.12428343851E+03  0.12428343851E+03  0.00000000000E+00 0.  1.
         25    1    1    2    0    0 -0.11656231553E+03  0.23612018282E+02  0.16712027670E+03  0.24020509506E+03  0.12500000000E+03 0.  0.
         25    1    1    2    0    0  0.13303323978E+03  0.59386408083E+02  0.28275001164E+03  0.34175599108E+03  0.12500000000E+03 0.  0.
         25    1    1    2    0    0 -0.16470924252E+02 -0.82998426365E+02  0.39571872402E+02  0.15604795164E+03  0.12500000000E+03 0.  0.
</event>
<event>
 5    0  0.5626800E-005  0.2620365E+03  0.7546771E-02  0.1105926E+00
         21   -1    0    0  502  501  0.00000000000E+00  0.00000000000E+00  0.28439679381E+03  0.28439679381E+03  0.00000000000E+00 0.  1.
         21   -1    0    0  501  502 -0.00000000000E+00 -0.00000000000E+00 -0.24143421357E+03  0.24143421357E+03  0.00000000000E+00 0.  1.
         25    1    1    2    0    0 -0.40439027318E+02 -0.43050424255E+02  0.14155551790E+03  0.19786767954E+03  0.12500000000E+03 0.  0.
         25    1    1    2    0    0  0.96053184741E+02  0.71141829825E+02 -0.49113258934E+02  0.17979011778E+03  0.12500000000E+03 0.  0.
         25    1    1    2    0    0 -0.55614157423E+02 -0.28091405570E+02 -0.49479678728E+02  0.14817321006E+03  0.12500000000E+03 0.  0.
</event>
<event>
 5    0  0.5626800E-005  0.3416069E+03  0.7546771E-02  0.1066114E+00
         21   -1    0    0  502  501  0.00000000000E+00  0.00000000000E+00  0.27153432686E+03  0.27153432686E+03  0.00000000000E+00 0. -1.
         21   -1    0    0  501  502 -0.00000000000E+00 -0.00000000000E+00 -0.42976239118E+03  0.42976239118E+03  0.00000000000E+00 0. -1.
         25    1    1    2    0    0  0.58451315981E+02 -0.60060822640E+02  0.83416275895E+02  0.17206723639E+03  0.12500000000E+03 0.  0.
         25    1    1    2    0    0 -0.10169762353E+02 -0.16447422217E+03 -0.79679254253E+02  0.22165057497E+03  0.12500000000E+03 0.  0.
         25    1    1    2    0    0 -0.48281553628E+02  0.22453504481E+03 -0.16196508595E+03  0.30757890668E+03  0.12500000000E+03 0.  0.
</event>
<event>
 5    0  0.5626800E-005  0.2371556E+03  0.7546771E-02  0.1121702E+00
         21   -1    0    0  502  501  0.00000000000E+00  0.00000000000E+00  0.56891673874E+03  0.56891673874E+03  0.00000000000E+00 0.  1.
         21   -1    0    0  501  502 -0.00000000000E+00 -0.00000000000E+00 -0.98859407485E+02  0.98859407485E+02  0.00000000000E+00 0.  1.
         25    1    1    2    0    0  0.31425786260E+02  0.61515429458E+02  0.12357011489E+03  0.18885523926E+03  0.12500000000E+03 0.  0.
         25    1    1    2    0    0 -0.82039669469E+02  0.22200289351E+00  0.69844129347E+02  0.16502654046E+03  0.12500000000E+03 0.  0.
         25    1    1    2    0    0  0.50613883209E+02 -0.61737432352E+02  0.27664308702E+03  0.31389436650E+03  0.12500000000E+03 0.  0.
</event>
<event>
 5    0  0.5626800E-005  0.3324764E+03  0.7546771E-02  0.1070046E+00
         21   -1    0    0  502  501  0.00000000000E+00  0.00000000000E+00  0.26556458438E+04  0.26556458438E+04  0.00000000000E+00 0. -1.
         21   -1    0    0  501  502 -0.00000000000E+00 -0.00000000000E+00 -0.41624727554E+02  0.41624727554E+02  0.00000000000E+00 0. -1.
         25    1    1    2    0    0  0.72129397105E+02 -0.26320851183E+02  0.29909219048E+03  0.33313146885E+03  0.12500000000E+03 0.  0.
         25    1    1    2    0    0  0.15255973515E+03 -0.49088436932E+02  0.78273915068E+03  0.80869631225E+03  0.12500000000E+03 0.  0.
         25    1    1    2    0    0 -0.22468913226E+03  0.75409288115E+02  0.15321897751E+04  0.15554427903E+04  0.12500000000E+03 0.  0.
</event>
<event>
 5    0  0.5626800E-005  0.3577757E+03  0.7546771E-02  0.1059468E+00
         21   -1    0    0  502  501  0.00000000000E+00  0.00000000000E+00  0.90291347659E+02  0.90291347659E+02  0.00000000000E+00 0. -1.
         21   -1    0    0  501  502 -0.00000000000E+00 -0.00000000000E+00 -0.14176716846E+04  0.14176716846E+04  0.00000000000E+00 0. -1.
         25    1    1    2    0    0 -0.10842098874E+03 -0.89447052669E+02 -0.73663130117E+03  0.76026742657E+03  0.12500000000E+03 0.  0.
         25    1    1    2    0    0 -0.10547842493E+03 -0.53601044347E+02 -0.23070634269E+03  0.28783534640E+03  0.12500000000E+03 0.  0.
         25    1    1    2    0    0  0.21389941367E+03  0.14304809702E+03 -0.36004269303E+03  0.45986025924E+03  0.12500000000E+03 0.  0.
</event>
<event>
 5    0  0.5626800E-005  0.3193047E+03  0.7546771E-02  0.1075970E+00
         21   -1    0    0  502  501  0.00000000000E+00  0.00000000000E+00  0.10890127637E+03  0.10890127637E+03  0.00000000000E+00 0. -1.
         21   -1    0    0  501  502 -0.00000000000E+00 -0.00000000000E+00 -0.93621972155E+03  0.93621972155E+03  0.00000000000E+00 0. -1.
         25    1    1    2    0    0 -0.12560726981E+03 -0.19886293117E+03 -0.46741180259E+03  0.53797996693E+03  0.12500000000E+03 0.  0.
         25    1    1    2    0    0  0.56304176304E+02  0.13967028804E+03 -0.15100241938E+03  0.24719360891E+03  0.12500000000E+03 0.  0.
         25    1    1    2    0    0  0.69303093502E+02  0.59192643137E+02 -0.20890422321E+03  0.25994742208E+03  0.12500000000E+03 0.  0.
</event>
<event>
 5    0  0.5626800E-005  0.2776835E+03  0.7546771E-02  0.1096961E+00
         21   -1    0    0  502  501  0.00000000000E+00  0.00000000000E+00  0.73191928029E+02  0.73191928029E+02  0.00000000000E+00 0.  1.
         21   -1    0    0  501  502 -0.00000000000E+00 -0.00000000000E+00 -0.10535055915E+04  0.10535055915E+04  0.00000000000E+00 0.  1.
         25    1    1    2    0    0 -0.12635818948E+03 -0.79453322604E+02 -0.17746425144E+03  0.26343458971E+03  0.12500000000E+03 0.  0.
         25    1    1    2    0    0  0.38757112181E+02 -0.92914762265E+01 -0.24199131879E+03  0.27526940194E+03  0.12500000000E+03 0.  0.
         25    1    1    2    0    0  0.87601077296E+02  0.88744798830E+02 -0.56085809327E+03  0.58799352789E+03  0.12500000000E+03 0.  0.
</event>
<event>
 5    0  0.5767869E-005  0.3349309E+03  0.7546771E-02  0.1068976E+00
         21   -1    0    0  502  501  0.00000000000E+00  0.00000000000E+00  0.42588532845E+03  0.42588532845E+03  0.00000000000E+00 0.  1.
         21   -1    0    0  501  502 -0.00000000000E+00 -0.00000000000E+00 -0.26340114956E+03  0.26340114956E+03  0.00000000000E+00 0.  1.
         25    1    1    2    0    0  0.30602205418E+02  0.17203569679E+03 -0.15615241146E+02  0.21541033333E+03  0.12500000000E+03 0.  0.
         25    1    1    2    0    0  0.10863704115E+03 -0.92183560355E+02 -0.19158545596E+02  0.19050423979E+03  0.12500000000E+03 0.  0.
         25    1    1    2    0    0 -0.13923924657E+03 -0.79852136439E+02  0.19725796563E+03  0.28337190489E+03  0.12500000000E+03 0.  0.
</event>
<event>
 5    0  0.5626800E-005  0.3366566E+03  0.7546771E-02  0.1068229E+00
         21   -1    0    0  502  501  0.00000000000E+00  0.00000000000E+00  0.44997199912E+03  0.44997199912E+03  0.00000000000E+00 0. -1.
         21   -1    0    0  501  502 -0.00000000000E+00 -0.00000000000E+00 -0.25187716563E+03  0.25187716563E+03  0.00000000000E+00 0. -1.
         25    1    1    2    0    0 -0.20989593075E+03 -0.27052489533E+02  0.66460115759E+02  0.25461752870E+03  0.12500000000E+03 0.  0.
         25    1    1    2    0    0 -0.51572346284E+02  0.59615696220E+00  0.57368274679E+02  0.14688832916E+03  0.12500000000E+03 0.  0.
         25    1    1    2    0    0  0.26146827703E+03  0.26456332571E+02  0.74266443044E+02  0.30034330689E+03  0.12500000000E+03 0.  0.
</event>
<event>
 5    0  0.5626800E-005  0.4272069E+03  0.7546771E-02  0.1034746E+00
         21   -1    0    0  502  501  0.00000000000E+00  0.00000000000E+00  0.31671081997E+03  0.31671081997E+03  0.00000000000E+00 0. -1.
         21   -1    0    0  501  502 -0.00000000000E+00 -0.00000000000E+00 -0.57625363163E+03  0.57625363163E+03  0.00000000000E+00 0. -1.
         25    1    1    2    0    0  0.14043106003E+02  0.13317424689E+03 -0.36965615182E+03  0.41255697720E+03  0.12500000000E+03 0.  0.
         25    1    1    2    0    0 -0.27443502374E+02 -0.25503889726E+03  0.10859749251E+03  0.30531360978E+03  0.12500000000E+03 0.  0.
         25    1    1    2    0    0  0.13400396371E+02  0.12186465037E+03  0.15158476499E+01  0.17509386462E+03  0.12500000000E+03 0.  0.
</event>
<event>
 5    0  0.5626800E-005  0.3824403E+03  0.7546771E-02  0.1050035E+00
         21   -1    0    0  502  501  0.00000000000E+00  0.00000000000E+00  0.21452914796E+03  0.21452914796E+03  0.00000000000E+00 0. -1.
         21   -1    0    0  501  502 -0.00000000000E+00 -0.00000000000E+00 -0.68177474948E+03  0.68177474948E+03  0.00000000000E+00 0. -1.
         25    1    1    2    0    0  0.12658633431E+03  0.57013868426E+02 -0.23215136398E+03  0.29798311533E+03  0.12500000000E+03 0.  0.
         25    1    1    2    0    0 -0.26237916050E+03 -0.49934341691E+02 -0.28171152276E+03  0.40782673331E+03  0.12500000000E+03 0.  0.
         25    1    1    2    0    0  0.13579282619E+03 -0.70795267353E+01  0.46617285221E+02  0.19049404879E+03  0.12500000000E+03 0.  0.
</event>
<event>
 5    0  0.5626800E-005  0.3662997E+03  0.7546771E-02  0.1056117E+00
         21   -1    0    0  502  501  0.00000000000E+00  0.00000000000E+00  0.10219628664E+04  0.10219628664E+04  0.00000000000E+00 0.  1.
         21   -1    0    0  501  502 -0.00000000000E+00 -0.00000000000E+00 -0.13129191380E+03  0.13129191380E+03  0.00000000000E+00 0.  1.
         25    1    1    2    0    0 -0.13128614642E+03  0.17516047191E+03  0.32461042198E+03  0.41099168997E+03  0.12500000000E+03 0.  0.
         25    1    1    2    0    0  0.23165055417E+03 -0.90650961091E+02  0.23274599938E+03  0.36287088092E+03  0.12500000000E+03 0.  0.
         25    1    1    2    0    0 -0.10036440775E+03 -0.84509510819E+02  0.33331453126E+03  0.37939220935E+03  0.12500000000E+03 0.  0.
</event>
<event>
 5    0  0.5626800E-005  0.2694307E+03  0.7546771E-02  0.1101606E+00
         21   -1    0    0  502  501  0.00000000000E+00  0.00000000000E+00  0.10305788109E+04  0.10305788109E+04  0.00000000000E+00 0.  1.
         21   -1    0    0  501  502 -0.00000000000E+00 -0.00000000000E+00 -0.70438939149E+02  0.70438939149E+02  0.00000000000E+00 0.  1.
         25    1    1    2    0    0 -0.47774766174E+02  0.20018200920E+02  0.21776771009E+03  0.25638044428E+03  0.12500000000E+03 0.  0.
         25    1    1    2    0    0  0.15517154059E+03 -0.19530039457E+02  0.57876545758E+03  0.61241659378E+03  0.12500000000E+03 0.  0.
         25    1    1    2    0    0 -0.10739677442E+03 -0.48816146341E+00  0.16360670408E+03  0.23222071199E+03  0.12500000000E+03 0.  0.
</event>
<event>
 5    0  0.5626800E-005  0.4143361E+03  0.7546771E-02  0.1038926E+00
         21   -1    0    0  502  501  0.00000000000E+00  0.00000000000E+00  0.11299273702E+04  0.11299273702E+04  0.00000000000E+00 0. -1.
         21   -1    0    0  501  502 -0.00000000000E+00 -0.00000000000E+00 -0.15193403380E+03  0.15193403380E+03  0.00000000000E+00 0. -1.
         25    1    1    2    0    0 -0.26056975407E+03 -0.18171446653E+03  0.47595932030E+03  0.58572947566E+03  0.12500000000E+03 0.  0.
         25    1    1    2    0    0  0.18046192867E+03  0.97611966066E+02  0.46220031213E+03  0.52091144368E+03  0.12500000000E+03 0.  0.
         25    1    1    2    0    0  0.80107825407E+02  0.84102500460E+02  0.39833703983E+02  0.17522048467E+03  0.12500000000E+03 0.  0.
</event>
<event>
 5    0  0.5626800E-005  0.3828815E+03  0.7546771E-02  0.1049874E+00
         21   -1    0    0  502  501  0.00000000000E+00  0.00000000000E+00  0.78417207246E+02  0.78417207246E+02  0.00000000000E+00 0.  1.
         21   -1    0    0  501  502 -0.00000000000E+00 -0.00000000000E+00 -0.18694656454E+04  0.18694656454E+04  0.00000000000E+00 0.  1.
         25    1    1    2    0    0  0.99755768540E+02 -0.20338285044E+03 -0.39488904328E+03  0.47209972857E+03  0.12500000000E+03 0.  0.
         25    1    1    2    0    0 -0.10037111051E+02  0.15493918594E+03 -0.25690286180E+03  0.32516299811E+03  0.12500000000E+03 0.  0.
         25    1    1    2    0    0 -0.89718657489E+02  0.48443664496E+02 -0.11392565331E+04  0.11506201260E+04  0.12500000000E+03 0.  0.
</event>
<event>
 5    0  0.5626800E-005  0.4430727E+03  0.7546771E-02  0.1029808E+00
         21   -1    0    0  502  501  0.00000000000E+00  0.00000000000E+00  0.16971983222E+04  0.16971983222E+04  0.00000000000E+00 0. -1.
         21   -1    0    0  501  502 -0.00000000000E+00 -0.00000000000E+00 -0.11566910911E+03  0.11566910911E+03  0.00000000000E+00 0. -1.
         25    1    1    2    0    0  0.18404585950E+03 -0.74583187654E+02  0.11317828674E+03  0.26051843480E+03  0.12500000000E+03 0.  0.
         25    1    1    2    0    0 -0.24873950321E+03 -0.34380199676E+02  0.55544498640E+03  0.62225193571E+03  0.12500000000E+03 0.  0.
         25    1    1    2    0    0  0.64693643704E+02  0.10896338733E+03  0.91290593997E+03  0.93009706082E+03  0.12500000000E+03 0.  0.
</event>
<event>
 5    0  0.5626800E-005  0.3133495E+03  0.7546771E-02  0.1078751E+00
         21   -1    0    0  502  501  0.00000000000E+00  0.00000000000E+00  0.33584162346E+03  0.33584162346E+03  0.00000000000E+00 0. -1.
         21   -1    0    0  501  502 -0.00000000000E+00 -0.00000000000E+00 -0.29236374618E+03  0.29236374618E+03  0.00000000000E+00 0. -1.
         25    1    1    2    0    0 -0.13433666645E+03  0.28278260940E+02  0.33960640827E+02  0.18874407307E+03  0.12500000000E+03 0.  0.
         25    1    1    2    0    0  0.11117322258E+03 -0.10046620694E+03  0.14266189788E+03  0.24172372921E+03  0.12500000000E+03 0.  0.
         25    1    1    2    0    0  0.23163443863E+02  0.72187946001E+02 -0.13314466143E+03  0.19773756736E+03  0.12500000000E+03 0.  0.
</event>
<event>
 5    0  0.5626800E-005  0.2495698E+03  0.7546771E-02  0.1113577E+00
         21   -1    0    0  502  501  0.00000000000E+00  0.00000000000E+00  0.82047739701E+03  0.82047739701E+03  0.00000000000E+00 0.  1.
         21   -1    0    0  501  502 -0.00000000000E+00 -0.00000000000E+00 -0.75913215916E+02  0.75913215916E+02  0.00000000000E+00 0.  1.
         25    1    1    2    0    0 -0.48525504489E+01  0.10544646516E+03  0.13372456641E+03  0.21130490748E+03  0.12500000000E+03 0.  0.
         25    1    1    2    0    0 -0.90543046623E+01  0.15897077425E+02  0.34045091149E+03  0.36313430111E+03  0.12500000000E+03 0.  0.
         25    1    1    2    0    0  0.13906855111E+02 -0.12134354259E+03  0.27038870319E+03  0.32195140435E+03  0.12500000000E+03 0.  0.
</event>
<event>
 5    0  0.5626800E-005  0.4289144E+03  0.7546771E-02  0.1034203E+00
         21   -1    0    0  502  501  0.00000000000E+00  0.00000000000E+00  0.52596216373E+03  0.52596216373E+03  0.00000000000E+00 0. -1.
         21   -1    0    0  501  502 -0.00000000000E+00 -0.00000000000E+00 -0.34977345706E+03  0.34977345706E+03  0.00000000000E+00 0. -1.
         25    1    1    2    0    0  0.11651384072E+03  0.10361489418E+03  0.30982802913E+03  0.36868676273E+03  0.12500000000E+03 0.  0.
         25    1    1    2    0    0  0.91770290612E+02  0.43288829172E+02  0.50433541401E+02  0.16871351774E+03  0.12500000000E+03 0.  0.
         25    1    1    2    0    0 -0.20828413133E+03 -0.14690372336E+03 -0.18407286386E+03  0.33833534032E+03  0.12500000000E+03 0.  0.
</event>
<event>
 5    0  0.5626800E-005  0.3210568E+03  0.7546771E-02  0.1075164E+00
         21   -1    0    0  502  501  0.00000000000E+00  0.00000000000E+00  0.77757698477E+02  0.77757698477E+02  0.00000000000E+00 0. -1.
         21   -1    0    0  501  502 -0.00000000000E+00 -0.00000000000E+00 -0.13256239366E+04  0.13256239366E+04  0.00000000000E+00 0. -1.
         25    1    1    2    0    0  0.61306126891E+02  0.17227829030E+03 -0.29941257428E+03  0.37243944493E+03  0.12500000000E+03 0.  0.
         25    1    1    2    0    0 -0.11589848264E+03 -0.11056688120E+03 -0.28013943044E+03  0.34606443617E+03  0.12500000000E+03 0.  0.
         25    1    1    2    0    0  0.54592355748E+02 -0.61711409091E+02 -0.66831423337E+03  0.68487775394E+03  0.12500000000E+03 0.  0.
</event>
<event>
 5    0  0.5626800E-005  0.3098168E+03  0.7546771E-02  0.1080434E+00
         21   -1    0    0  502  501  0.00000000000E+00  0.00000000000E+00  0.22167264265E+03  0.22167264265E+03  0.00000000000E+00 0.  1.
         21   -1    0    0  501  502 -0.00000000000E+00 -0.00000000000E+00 -0.43300996534E+03  0.43300996534E+03  0.00000000000E+00 0.  1.
         25    1    1    2    0    0 -0.28378945779E+02  0.13999242688E+03  0.99883838066E+02  0.21448782076E+03  0.12500000000E+03 0.  0.
         25    1    1    2    0    0  0.49929355224E+02 -0.98113160265E+02 -0.22959250523E+03  0.28364916920E+03  0.12500000000E+03 0.  0.
         25    1    1    2    0    0 -0.21550409445E+02 -0.41879266620E+02 -0.81628655528E+02  0.15654561803E+03  0.12500000000E+03 0.  0.
</event>
<event>
 5    0  0.5626800E-005  0.2407729E+03  0.7546771E-02  0.1119279E+00
         21   -1    0    0  502  501  0.00000000000E+00  0.00000000000E+00  0.67603426786E+03  0.67603426786E+03  0.00000000000E+00 0. -1.
         21   -1    0    0  501  502 -0.00000000000E+00 -0.00000000000E+00 -0.85752475809E+02  0.85752475809E+02  0.00000000000E+00 0. -1.
         25    1    1    2    0    0 -0.90138735787E+02  0.14145933739E+02  0.32889905255E+03  0.36348959531E+03  0.12500000000E+03 0.  0.
         25    1    1    2    0    0  0.26462200972E+02 -0.56097701304E+02  0.66611524621E+02  0.15462630884E+03  0.12500000000E+03 0.  0.
         25    1    1    2    0    0  0.63676534814E+02  0.41951767565E+02  0.19477121488E+03  0.24367083952E+03  0.12500000000E+03 0.  0.
</event>
<event>
 5    0  0.5626800E-005  0.3503942E+03  0.7546771E-02  0.1062453E+00
         21   -1    0    0  502  501  0.00000000000E+00  0.00000000000E+00  0.74632457353E+03  0.74632457353E+03  0.00000000000E+00 0. -1.
         21   -1    0    0  501  502 -0.00000000000E+00 -0.00000000000E+00 -0.16450760420E+03  0.16450760420E+03  0.00000000000E+00 0. -1.
         25    1    1    2    0    0  0.11200937565E+03  0.46508569270E+02  0.41379108138E+02  0.17901502127E+03  0.12500000000E+03 0.  0.
         25    1    1    2    0    0 -0.49520773820E+02  0.33709890246E+02 -0.27627802097E+02  0.14133987119E+03  0.12500000000E+03 0.  0.
         25    1    1    2    0    0 -0.62488601835E+02 -0.80218459517E+02  0.56806566329E+03  0.59047728527E+03  0.12500000000E+03 0.  0.
</event>
<event>
 5    0  0.5626800E-005  0.5377288E+03  0.7546771E-02  0.1004375E+00
         21   -1    0    0  502  501  0.00000000000E+00  0.00000000000E+00  0.31410316459E+03  0.31410316459E+03  0.00000000000E+00 0. -1.
         21   -1    0    0  501  502 -0.00000000000E+00 -0.00000000000E+00 -0.92056457295E+03  0.92056457295E+03  0.00000000000E+00 0. -1.
         25    1    1    2    0    0 -0.55644931951E+02  0.10762462625E+03 -0.64241765042E+03  0.66558609976E+03  0.12500000000E+03 0.  0.
         25    1    1    2    0    0 -0.12183043627E+03 -0.10519466099E+03  0.20866147743E+03  0.29167307738E+03  0.12500000000E+03 0.  0.
         25    1    1    2    0    0  0.17747536822E+03 -0.24299652509E+01 -0.17270523538E+03  0.27740856040E+03  0.12500000000E+03 0.  0.
</event>
<event>
 5    0  0.5626800E-005  0.2559497E+03  0.7546771E-02  0.1109601E+00
         21   -1    0    0  502  501  0.00000000000E+00  0.00000000000E+00  0.67055694589E+03  0.67055694589E+03  0.00000000000E+00 0. -1.
         21   -1    0    0  501  502 -0.00000000000E+00 -0.00000000000E+00 -0.97695313762E+02  0.97695313762E+02  0.00000000000E+00 0. -1.
         25    1    1    2    0    0 -0.72430389349E+02 -0.22056561525E+02  0.15721749570E+03  0.21465086574E+03  0.12500000000E+03 0.  0.
         25    1    1    2    0    0 -0.56963528162E+02  0.79911749263E+02  0.10662645748E+03  0.19137641611E+03  0.12500000000E+03 0.  0.
         25    1    1    2    0    0  0.12939391751E+03 -0.57855187738E+02  0.30901767895E+03  0.36222497780E+03  0.12500000000E+03 0.  0.
</event>
<event>
 5    0  0.6864482E-005  0.4617895E+03  0.7546771E-02  0.1024263E+00
         21   -1    0    0  502  501  0.00000000000E+00  0.00000000000E+00  0.92154832756E+03  0.92154832756E+03  0.00000000000E+00 0.  1.
         21   -1    0    0  501  502 -0.00000000000E+00 -0.00000000000E+00 -0.23140353317E+03  0.23140353317E+03  0.00000000000E+00 0.  1.
         25    1    1    2    0    0 -0.20301413822E+03 -0.46728650232E+02  0.26488978136E+02  0.24438693302E+03  0.12500000000E+03 0.  0.
         25    1    1    2    0    0  0.20123315563E+03  0.73148394761E+02  0.16024820131E+02  0.24844972417E+03  0.12500000000E+03 0.  0.
         25    1    1    2    0    0  0.17809825842E+01 -0.26419744529E+02  0.64763099612E+03  0.66011520354E+03  0.12500000000E+03 0.  0.
</event>
<event>
 5    0  0.5626800E-005  0.4221389E+03  0.7546771E-02  0.1036372E+00
         21   -1    0    0  502  501  0.00000000000E+00  0.00000000000E+00  0.80967739074E+03  0.80967739074E+03  0.00000000000E+00 0.  1.
         21   -1    0    0  501  502 -0.00000000000E+00 -0.00000000000E+00 -0.22008916305E+03  0.22008916305E+03  0.00000000000E+00 0.  1.
         25    1    1    2    0    0 -0.27097277708E+03  0.14454109688E+03  0.28695076598E+03  0.43850212850E+03  0.12500000000E+03 0.  0.
         25    1    1    2    0    0  0.15010456586E+03  0.43996608175E+02  0.26484685173E+03  0.33201797706E+03  0.12500000000E+03 0.  0.
         25    1    1    2    0    0  0.12086821122E+03 -0.18853770505E+03  0.37790609979E+02  0.25924644821E+03  0.12500000000E+03 0.  0.
</event>
<event>
 5    0  0.5626800E-005  0.6077588E+03  0.7546771E-02  0.9889438E-01
         21   -1    0    0  502  501  0.00000000000E+00  0.00000000000E+00  0.45164179636E+03  0.45164179636E+03  0.00000000000E+00 0. -1.
         21   -1    0    0  501  502 -0.00000000000E+00 -0.00000000000E+00 -0.81784009024E+03  0.81784009024E+03  0.00000000000E+00 0. -1.
         25    1    1    2    0    0  0.22664052072E+02  0.14513182906E+03 -0.34165090334E+03  0.39233563031E+03  0.12500000000E+03 0.  0.
         25    1    1    2    0    0  0.10037224610E+03 -0.21328418295E+03 -0.38623831096E+03  0.46943557954E+03  0.12500000000E+03 0.  0.
         25    1    1    2    0    0 -0.12303629817E+03  0.68152353891E+02  0.36169092042E+03  0.40771067674E+03  0.12500000000E+03 0.  0.
</event>
<event>
 5    0  0.5626800E-005  0.2109813E+03  0.7546771E-02  0.1140791E+00
         21   -1    0    0  502  501  0.00000000000E+00  0.00000000000E+00  0.17928084996E+03  0.17928084996E+03  0.00000000000E+00 0. -1.
         21   -1    0    0  501  502 -0.00000000000E+00 -0.00000000000E+00 -0.24828702737E+03  0.24828702737E+03  0.00000000000E+00 0. -1.
         25    1    1    2    0    0 -0.35611702154E+02  0.17860861590E+02  0.86156495023E+01  0.13147788074E+03  0.12500000000E+03 0.  0.
         25    1    1    2    0    0 -0.38405778656E+02 -0.22786669036E+02 -0.71121445347E+02  0.15059049143E+03  0.12500000000E+03 0.  0.
         25    1    1    2    0    0  0.74017480810E+02  0.49258074462E+01 -0.65003815625E+01  0.14549950517E+03  0.12500000000E+03 0.  0.
</event>
<event>
 5    0  0.5626800E-005  0.2488523E+03  0.7546771E-02  0.1114032E+00
         21   -1    0    0  502  501  0.00000000000E+00  0.00000000000E+00  0.12794570268E+04  0.12794570268E+04  0.00000000000E+00 0.  1.
         21   -1    0    0  501  502 -0.00000000000E+00 -0.00000000000E+00 -0.48401346156E+02  0.48401346156E+02  0.00000000000E+00 0.  1.
         25    1    1    2    0    0 -0.10953392059E+03  0.12678288146E+02  0.47875984885E+03  0.50694616244E+03  0.12500000000E+03 0.  0.
         25    1    1    2    0    0  0.73139330706E+00  0.38947784462E+02  0.48374308363E+03  0.50114851672E+03  0.12500000000E+03 0.  0.
         25    1    1    2    0    0  0.10880252728E+03 -0.51626072608E+02  0.26855274813E+03  0.31976369376E+03  0.12500000000E+03 0.  0.
</event>
<event>
 5    0  0.5626800E-005  0.2374214E+03  0.7546771E-02  0.1121523E+00
         21   -1    0    0  502  501  0.00000000000E+00  0.00000000000E+00  0.25838156999E+03  0.25838156999E+03  0.00000000000E+00 0.  1.
         21   -1    0    0  501  502 -0.00000000000E+00 -0.00000000000E+00 -0.21816150411E+03  0.21816150411E+03  0.00000000000E+00 0.  1.
         25    1    1    2    0    0 -0.81483218719E+01 -0.29996227320E+02 -0.10911404913E+03  0.16881067656E+03  0.12500000000E+03 0.  0.
         25    1    1    2    0    0  0.20230267538E+02  0.11300681464E+02  0.12532260551E+03  0.17851533430E+03  0.12500000000E+03 0.  0.
         25    1    1    2    0    0 -0.12081945666E+02  0.18695545856E+02  0.24011509498E+02  0.12921706325E+03  0.12500000000E+03 0.  0.
</event>
<event>
 5    0  0.5626800E-005  0.2829287E+03  0.7546771E-02  0.1094100E+00
         21   -1    0    0  502  501  0.00000000000E+00  0.00000000000E+00  0.73916555496E+02  0.73916555496E+02  0.00000000000E+00 0. -1.
         21   -1    0    0  501  502 -0.00000000000E+00 -0.00000000000E+00 -0.10829600169E+04  0.10829600169E+04  0.00000000000E+00 0. -1.
         25    1    1    2    0    0 -0.10302233723E+03  0.11250367712E+03 -0.23666929382E+03  0.30807147543E+03  0.12500000000E+03 0.  0.
         25    1    1    2    0    0  0.64366031071E+02 -0.48362315772E+02 -0.62155582412E+03  0.63909196681E+03  0.12500000000E+03 0.  0.
         25    1    1    2    0    0  0.38656306161E+02 -0.64141361349E+02 -0.15081834351E+03  0.20971313021E+03  0.12500000000E+03 0.  0.
</event>
<event>
 5    0  0.5626800E-005  0.3704280E+03  0.7546771E-02  0.1054529E+00
         21   -1    0    0  502  501  0.00000000000E+00  0.00000000000E+00  0.23251719369E+03  0.23251719369E+03  0.00000000000E+00 0. -1.
         21   -1    0    0  501  502 -0.00000000000E+00 -0.00000000000E+00 -0.59013661864E+03  0.59013661864E+03  0.00000000000E+00 0. -1.
         25    1    1    2    0    0  0.37099563746E+02 -0.20755480312E+02 -0.18480129586E+03  0.22712042300E+03  0.12500000000E+03 0.  0.
         25    1    1    2    0    0  0.15500614953E+03 -0.43546321104E+01 -0.27810053983E+03  0.34206838419E+03  0.12500000000E+03 0.  0.
         25    1    1    2    0    0 -0.19210571327E+03  0.25110112422E+02  0.10528241074E+03  0.25346500514E+03  0.12500000000E+03 0.  0.
</event>
<event>
 5    0  0.5626800E-005  0.2021695E+03  0.7546771E-02  0.1147921E+00
         21   -1    0    0  502  501  0.00000000000E+00  0.00000000000E+00  0.11398627481E+03  0.11398627481E+03  0.00000000000E+00 0. -1.
         21   -1    0    0  501  502 -0.00000000000E+00 -0.00000000000E+00 -0.35857399393E+03  0.35857399393E+03  0.00000000000E+00 0. -1.
         25    1    1    2    0    0 -0.12946949391E+02  0.12836626302E+02 -0.88297563846E+02  0.15412288037E+03  0.12500000000E+03 0.  0.
         25    1    1    2    0    0 -0.12340161589E+02 -0.22616785943E+02 -0.14008848089E+03  0.18950878891E+03  0.12500000000E+03 0.  0.
         25    1    1    2    0    0  0.25287110980E+02  0.97801596410E+01 -0.16201674377E+02  0.12892859945E+03  0.12500000000E+03 0.  0.
</event>
<event>
 5    0  0.5626800E-005  0.2461229E+03  0.7546771E-02  0.1115780E+00
         21   -1    0    0  502  501  0.00000000000E+00  0.00000000000E+00  0.21778021306E+03  0.21778021306E+03  0.00000000000E+00 0. -1.
         21   -1    0    0  501  502 -0.00000000000E+00 -0.00000000000E+00 -0.27815426381E+03  0.27815426381E+03  0.00000000000E+00 0. -1.
         25    1    1    2    0    0  0.46206603026E+02  0.11656156331E+03  0.91316653797E+00  0.17705220156E+03  0.12500000000E+03 0.  0.
         25    1    1    2    0    0 -0.87280229304E+02 -0.30374221857E+02 -0.36084219668E+02  0.15958540876E+03  0.12500000000E+03 0.  0.
         25    1    1    2    0    0  0.41073626278E+02 -0.86187341450E+02 -0.25202997620E+02  0.15929686654E+03  0.12500000000E+03 0.  0.
</event>
<event>
 5    0  0.5626800E-005  0.5319738E+03  0.7546771E-02  0.1005755E+00
         21   -1    0    0  502  501  0.00000000000E+00  0.00000000000E+00  0.18434987435E+04  0.18434987435E+04  0.00000000000E+00 0. -1.
         21   -1    0    0  501  502 -0.00000000000E+00 -0.00000000000E+00 -0.15351032719E+03  0.15351032719E+03  0.00000000000E+00 0. -1.
         25    1    1    2    0    0  0.34285902150E+03 -0.28535181952E+02  0.61697165113E+03  0.71738802857E+03  0.12500000000E+03 0.  0.
         25    1    1    2    0    0 -0.29372922957E+03  0.15708724177E+02  0.16135169879E+03  0.35802652838E+03  0.12500000000E+03 0.  0.
         25    1    1    2    0    0 -0.49129791927E+02  0.12826457775E+02  0.91166506635E+03  0.92159451369E+03  0.12500000000E+03 0.  0.
</event>
<event>
 5    0  0.5626800E-005  0.4864298E+03  0.7546771E-02  0.1017383E+00
         21   -1    0    0  502  501  0.00000000000E+00  0.00000000000E+00  0.44166247948E+03  0.44166247948E+03  0.00000000000E+00 0. -1.
         21   -1    0    0  501  502 -0.00000000000E+00 -0.00000000000E+00 -0.53573488043E+03  0.53573488043E+03  0.00000000000E+00 0. -1.
         25    1    1    2    0    0  0.76115432086E+02  0.23119514838E+03 -0.32534483978E+03  0.42511059785E+03  0.12500000000E+03 0.  0.
         25    1    1    2    0    0 -0.16840933168E+03 -0.37385866040E+02  0.21604729990E+03  0.30341529588E+03  0.12500000000E+03 0.  0.
         25    1    1    2    0    0  0.92293899598E+02 -0.19380928234E+03  0.15225138927E+02  0.24887146618E+03  0.12500000000E+03 0.  0.
</event>
<event>
 5    0  0.6366561E-005  0.4948298E+03  0.7546771E-02  0.1015137E+00
         21   -1    0    0  502  501  0.00000000000E+00  0.00000000000E+00  0.99881783146E+03  0.99881783146E+03  0.00000000000E+00 0.  1.
         21   -1    0    0  501  502 -0.00000000000E+00 -0.00000000000E+00 -0.24514633168E+03  0.24514633168E+03  0.00000000000E+00 0.  1.
         25    1    1    2    0    0 -0.84946112786E+01 -0.15070662536E+03  0.66230168921E+03  0.69069035962E+03  0.12500000000E+03 0.  0.
         25    1    1    2    0    0  0.15230863827E+03 -0.96250982170E+02 -0.24223663234E+02  0.22062175487E+03  0.12500000000E+03 0.  0.
         25    1    1    2    0    0 -0.14381402700E+03  0.24695760753E+03  0.11559347381E+03  0.33265204864E+03  0.12500000000E+03 0.  0.
</event>
<event>
 5    0  0.5626800E-005  0.2848991E+03  0.7546771E-02  0.1093043E+00
         21   -1    0    0  502  501  0.00000000000E+00  0.00000000000E+00  0.39330879409E+02  0.39330879409E+02  0.00000000000E+00 0.  1.
         21   -1    0    0  501  502 -0.00000000000E+00 -0.00000000000E+00 -0.20637094704E+04  0.20637094704E+04  0.00000000000E+00 0.  1.
         25    1    1    2    0    0 -0.92828906429E+02  0.19004790157E+02 -0.13985745577E+04  0.14073429509E+04  0.12500000000E+03 0.  0.
         25    1    1    2    0    0 -0.52867610479E+01  0.44490623612E+02 -0.27521436041E+03  0.30557373842E+03  0.12500000000E+03 0.  0.
         25    1    1    2    0    0  0.98115667477E+02 -0.63495413769E+02 -0.35058967291E+03  0.39012366055E+03  0.12500000000E+03 0.  0.
</event>
<event>
 5    0  0.5626800E-005  0.2250698E+03  0.7546771E-02  0.1130159E+00
         21   -1    0    0  502  501  0.00000000000E+00  0.00000000000E+00  0.83765517631E+03  0.83765517631E+03  0.00000000000E+00 0.  1.
         21   -1    0    0  501  502 -0.00000000000E+00 -0.00000000000E+00 -0.60474065601E+02  0.60474065601E+02  0.00000000000E+00 0.  1.
         25    1    1    2    0    0 -0.55715978372E+02 -0.38211433118E+02  0.22889130592E+03  0.26940789483E+03  0.12500000000E+03 0.  0.
         25    1    1    2    0    0  0.56544863278E+02 -0.51856401200E+02  0.20130577208E+03  0.24906911045E+03  0.12500000000E+03 0.  0.
         25    1    1    2    0    0 -0.82888490673E+00  0.90067834318E+02  0.34698403271E+03  0.37965223664E+03  0.12500000000E+03 0.  0.
</event>
<event>
 5    0  0.5626800E-005  0.2284979E+03  0.7546771E-02  0.1127702E+00
         21   -1    0    0  502  501  0.00000000000E+00  0.00000000000E+00  0.95357185629E+02  0.95357185629E+02  0.00000000000E+00 0. -1.
         21   -1    0    0  501  502 -0.00000000000E+00 -0.00000000000E+00 -0.54753373997E+03  0.54753373997E+03  0.00000000000E+00 0. -1.
         25    1    1    2    0    0  0.11176229597E+02  0.29949485143E+02 -0.11358850559E+03  0.17189888997E+03  0.12500000000E+03 0.  0.
         25    1    1    2    0    0 -0.77149603759E+01 -0.88295336866E+02 -0.68815954366E+02  0.16797685168E+03  0.12500000000E+03 0.  0.
         25    1    1    2    0    0 -0.34612692212E+01  0.58345851723E+02 -0.26977209438E+03  0.30301518395E+03  0.12500000000E+03 0.  0.
</event>
<event>
 5    0  0.5626800E-005  0.5074070E+03  0.7546771E-02  0.1011863E+00
         21   -1    0    0  502  501  0.00000000000E+00  0.00000000000E+00  0.41043537987E+03  0.41043537987E+03  0.00000000000E+00 0.  1.
         21   -1    0    0  501  502 -0.00000000000E+00 -0.00000000000E+00 -0.62728965744E+03  0.62728965744E+03  0.00000000000E+00 0.  1.
         25    1    1    2    0    0  0.50521630919E+02 -0.17466413661E+03 -0.35680862547E+03  0.41952042979E+03  0.12500000000E+03 0.  0.
         25    1    1    2    0    0 -0.57921421834E+01  0.31791192339E+03  0.22083553405E+03  0.40681061079E+03  0.12500000000E+03 0.  0.
         25    1    1    2    0    0 -0.44729488736E+02 -0.14324778678E+03 -0.80881186152E+02  0.21139399673E+03  0.12500000000E+03 0.  0.
</event>
<event>
 5    0  0.5626800E-005  0.3824754E+03  0.7546771E-02  0.1050023E+00
         21   -1    0    0  502  501  0.00000000000E+00  0.00000000000E+00  0.15069986058E+03  0.15069986058E+03  0.00000000000E+00 0.  1.
         21   -1    0    0  501  502 -0.00000000000E+00 -0.00000000000E+00 -0.97072054198E+03  0.97072054198E+03  0.00000000000E+00 0.  1.
         25    1    1    2    0    0  0.12783891299E+03  0.10735511003E+03  0.34424353700E+02  0.21137157674E+03  0.12500000000E+03 0.  0.
         25    1    1    2    0    0 -0.27652935236E+02 -0.74290968146E+02 -0.35964668009E+03  0.38891460152E+03  0.12500000000E+03 0.  0.
         25    1    1    2    0    0 -0.10018597776E+03 -0.33064141884E+02 -0.49479835501E+03  0.52113422430E+03  0.12500000000E+03 0.  0.
</event>
<event>
 5    0  0.5626800E-005  0.2437826E+03  0.7546771E-02  0.1117298E+00
         21   -1    0    0  502  501  0.00000000000E+00  0.00000000000E+00  0.37777380664E+04  0.37777380664E+04  0.00000000000E+00 0.  1.
         21   -1    0    0  501  502 -0.00000000000E+00 -0.00000000000E+00 -0.15731624900E+02  0.15731624900E+02  0.00000000000E+00 0.  1.
         25    1    1    2    0    0  0.80650436484E+02  0.90828435997E+02  0.17296871845E+04  0.17384467360E+04  0.12500000000E+03 0.  0.
         25    1    1    2    0    0  0.24508279863E+02 -0.40469726955E+02  0.90756386075E+03  0.91735250363E+03  0.12500000000E+03 0.  0.
         25    1    1    2    0    0 -0.10515871635E+03 -0.50358709042E+02  0.11247553962E+04  0.11376704516E+04  0.12500000000E+03 0.  0.
</event>
<event>
 5    0  0.6072510E-005  0.2929695E+03  0.7546771E-02  0.1088809E+00
         21   -1    0    0  502  501  0.00000000000E+00  0.00000000000E+00  0.11284536049E+03  0.11284536049E+03  0.00000000000E+00 0.  1.
         21   -1    0    0  501  502 -0.00000000000E+00 -0.00000000000E+00 -0.76060831687E+03  0.76060831687E+03  0.00000000000E+00 0.  1.
         25    1    1    2    0    0  0.96456432599E+02  0.64440794191E+02 -0.86587085498E+02  0.19125580441E+03  0.12500000000E+03 0.  0.
         25    1    1    2    0    0 -0.46078168057E+02  0.44913187427E+02 -0.61892762673E+02  0.15361024070E+03  0.12500000000E+03 0.  0.
         25    1    1    2    0    0 -0.50378264541E+02 -0.10935398162E+03 -0.49928310821E+03  0.52858763226E+03  0.12500000000E+03 0.  0.
</event>
<event>
 5    0  0.5626800E-005  0.4238393E+03  0.7546771E-02  0.1035824E+00
         21   -1    0    0  502  501  0.00000000000E+00  0.00000000000E+00  0.40856841649E+03  0.40856841649E+03  0.00000000000E+00 0. -1.
         21   -1    0    0  501  502 -0.00000000000E+00 -0.00000000000E+00 -0.43968102079E+03  0.43968102079E+03  0.00000000000E+00 0. -1.
         25    1    1    2    0    0  0.19676688717E+03 -0.12768959519E+03  0.54729147087E+02  0.27137081668E+03  0.12500000000E+03 0.  0.
         25    1    1    2    0    0  0.13352238385E+03 -0.11781035541E+02 -0.72046864284E+02  0.19693341626E+03  0.12500000000E+03 0.  0.
         25    1    1    2    0    0 -0.33028927102E+03  0.13947063073E+03 -0.13794887096E+02  0.37994520433E+03  0.12500000000E+03 0.  0.
</event>
<event>
 5    0  0.5626800E-005  0.2195901E+03  0.7546771E-02  0.1134189E+00
         21   -1    0    0  502  501  0.00000000000E+00  0.00000000000E+00  0.11845400739E+03  0.11845400739E+03  0.00000000000E+00 0. -1.
         21   -1    0    0  501  502 -0.00000000000E+00 -0.00000000000E+00 -0.40707617162E+03  0.40707617162E+03  0.00000000000E+00 0. -1.
         25    1    1    2    0    0 -0.15803381642E+02  0.51806363541E+02 -0.81860569134E+02  0.15893331606E+03  0.12500000000E+03 0.  0.
         25    1    1    2    0    0  0.73887217910E+01 -0.16391552483E+02 -0.19961525798E+03  0.23620865230E+03  0.12500000000E+03 0.  0.
         25    1    1    2    0    0  0.84146598514E+01 -0.35414811058E+02 -0.71463371228E+01  0.13038821065E+03  0.12500000000E+03 0.  0.
</event>
<event>
 5    0  0.5626800E-005  0.2850163E+03  0.7546771E-02  0.1092980E+00
         21   -1    0    0  502  501  0.00000000000E+00  0.00000000000E+00  0.65389934313E+02  0.65389934313E+02  0.00000000000E+00 0. -1.
         21   -1    0    0  501  502 -0.00000000000E+00 -0.00000000000E+00 -0.12423061476E+04  0.12423061476E+04  0.00000000000E+00 0. -1.
         25    1    1    2    0    0  0.17920662602E+02  0.41671286631E+02 -0.19922645669E+03  0.23952834347E+03  0.12500000000E+03 0.  0.
         25    1    1    2    0    0  0.19350443334E+02 -0.62685779461E+02 -0.90778080155E+03  0.91869196702E+03  0.12500000000E+03 0.  0.
         25    1    1    2    0    0 -0.37271105935E+02  0.21014492830E+02 -0.69908955034E+02  0.14947577142E+03  0.12500000000E+03 0.  0.
</event>
<event>
 5    0  0.5639826E-005  0.3660427E+03  0.7546771E-02  0.1056216E+00
         21   -1    0    0  502  501  0.00000000000E+00  0.00000000000E+00  0.57863511983E+03  0.57863511983E+03  0.00000000000E+00 0. -1.
         21   -1    0    0  501  502 -0.00000000000E+00 -0.00000000000E+00 -0.23155746303E+03  0.23155746303E+03  0.00000000000E+00 0. -1.
         25    1    1    2    0    0 -0.52272175344E+02 -0.74385161915E+02 -0.34565393401E+02  0.15838339259E+03  0.12500000000E+03 0.  0.
         25    1    1    2    0    0  0.22240896114E+03 -0.78139498052E+02  0.21431136218E+03  0.34223659523E+03  0.12500000000E+03 0.  0.
         25    1    1    2    0    0 -0.17013678580E+03  0.15252465997E+03  0.16733168802E+03  0.30957259504E+03  0.12500000000E+03 0.  0.
</event>
<event>
 5    0  0.5626800E-005  0.2670889E+03  0.7546771E-02  0.1102957E+00
         21   -1    0    0  502  501  0.00000000000E+00  0.00000000000E+00  0.14406818363E+03  0.14406818363E+03  0.00000000000E+00 0. -1.
         21   -1    0    0  501  502 -0.00000000000E+00 -0.00000000000E+00 -0.49515778387E+03  0.49515778387E+03  0.00000000000E+00 0. -1.
         25    1    1    2    0    0  0.69850239953E+02 -0.38921258993E+02 -0.19591814047E+03  0.24576988870E+03  0.12500000000E+03 0.  0.
         25    1    1    2    0    0 -0.28676143195E+02 -0.50833072697E+02  0.37982300786E+02  0.14308730776E+03  0.12500000000E+03 0.  0.
         25    1    1    2    0    0 -0.41174096758E+02  0.89754331690E+02 -0.19315376055E+03  0.25036877105E+03  0.12500000000E+03 0.  0.
</event>
<event>
 5    0  0.5626800E-005  0.2690053E+03  0.7546771E-02  0.1101850E+00
         21   -1    0    0  502  501  0.00000000000E+00  0.00000000000E+00  0.12878633106E+03  0.12878633106E+03  0.00000000000E+00 0. -1.
         21   -1    0    0  501  502 -0.00000000000E+00 -0.00000000000E+00 -0.56189066073E+03  0.56189066073E+03  0.00000000000E+00 0. -1.
         25    1    1    2    0    0 -0.61630895287E+02  0.57688135097E+02 -0.19662806489E+03  0.24781824809E+03  0.12500000000E+03 0.  0.
         25    1    1    2    0    0  0.12793232498E+03  0.47041854156E+02 -0.17975686297E+03  0.25790918092E+03  0.12500000000E+03 0.  0.
         25    1    1    2    0    0 -0.66301429696E+02 -0.10472998925E+03 -0.56719401814E+02  0.18494956278E+03  0.12500000000E+03 0.  0.
</event>
<event>
 5    0  0.5626800E-005  0.3366141E+03  0.7546771E-02  0.1068247E+00
         21   -1    0    0  502  501  0.00000000000E+00  0.00000000000E+00  0.83017792521E+03  0.83017792521E+03  0.00000000000E+00 0. -1.
         21   -1    0    0  501  502 -0.00000000000E+00 -0.00000000000E+00 -0.13648763509E+03  0.13648763509E+03  0.00000000000E+00 0. -1.
         25    1    1    2    0    0 -0.14225115899E+03 -0.86411738531E+02  0.46894791004E+03  0.51306873138E+03  0.12500000000E+03 0.  0.
         25    1    1    2    0    0  0.11143946071E+03  0.86525711062E+01 -0.17357925155E+02  0.16858208077E+03  0.12500000000E+03 0.  0.
         25    1    1    2    0    0  0.30811698272E+02  0.77759167424E+02  0.24210030524E+03  0.28501474816E+03  0.12500000000E+03 0.  0.
</event>
<event>
 5    0  0.5626800E-005  0.4099488E+03  0.7546771E-02  0.1040388E+00
         21   -1    0    0  502  501  0.00000000000E+00  0.00000000000E+00  0.15343086314E+04  0.15343086314E+04  0.00000000000E+00 0.  1.
         21   -1    0    0  501  502 -0.00000000000E+00 -0.00000000000E+00 -0.10953336893E+03  0.10953336893E+03  0.00000000000E+00 0.  1.
         25    1    1    2    0    0 -0.69986566587E+02 -0.25061630697E+03  0.64247336122E+03  0.70434627329E+03  0.12500000000E+03 0.  0.
         25    1    1    2    0    0  0.20188595432E+03  0.23183304518E+03  0.56850671507E+03  0.65827758922E+03  0.12500000000E+03 0.  0.
         25    1    1    2    0    0 -0.13189938773E+03  0.18783261784E+02  0.21379518620E+03  0.28121813784E+03  0.12500000000E+03 0.  0.
</event>
<event>
 5    0  0.5626800E-005  0.3097825E+03  0.7546771E-02  0.1080450E+00
         21   -1    0    0  502  501  0.00000000000E+00  0.00000000000E+00  0.12976911685E+03  0.12976911685E+03  0.00000000000E+00 0. -1.
         21   -1    0    0  501  502 -0.00000000000E+00 -0.00000000000E+00 -0.73950724539E+03  0.73950724539E+03  0.00000000000E+00 0. -1.
         25    1    1    2    0    0 -0.17014591893E+03 -0.45445941308E+02 -0.45129823020E+03  0.50030996381E+03  0.12500000000E+03 0.  0.
         25    1    1    2    0    0  0.58117051682E+02  0.23129533373E+02 -0.14132361300E+03  0.19877105071E+03  0.12500000000E+03 0.  0.
         25    1    1    2    0    0  0.11202886725E+03  0.22316407935E+02 -0.17116285350E+02  0.17019534771E+03  0.12500000000E+03 0.  0.
</event>
<event>
 5    0  0.5626800E-005  0.2913791E+03  0.7546771E-02  0.1089631E+00
         21   -1    0    0  502  501  0.00000000000E+00  0.00000000000E+00  0.37908141749E+02  0.37908141749E+02  0.00000000000E+00 0.  1.
         21   -1    0    0  501  502 -0.00000000000E+00 -0.00000000000E+00 -0.22396707150E+04  0.22396707150E+04  0.00000000000E+00 0.  1.
         25    1    1    2    0    0  0.11414099547E+02  0.13648608612E+03 -0.61439104548E+03  0.64176326643E+03  0.12500000000E+03 0.  0.
         25    1    1    2    0    0 -0.95876746578E+02 -0.17314940210E+03 -0.10866314675E+04  0.11115601703E+04  0.12500000000E+03 0.  0.
         25    1    1    2    0    0  0.84462647031E+02  0.36663315984E+02 -0.50074006026E+03  0.52425542003E+03  0.12500000000E+03 0.  0.
</event>
<event>
 5    0  0.5626800E-005  0.2267111E+03  0.7546771E-02  0.1128976E+00
         21   -1    0    0  502  501  0.00000000000E+00  0.00000000000E+00  0.62595679460E+02  0.62595679460E+02  0.00000000000E+00 0. -1.
         21   -1    0    0  501  502 -0.00000000000E+00 -0.00000000000E+00 -0.82110963507E+03  0.82110963507E+03  0.00000000000E+00 0. -1.
         25    1    1    2    0    0  0.69199898441E+02  0.56607152017E+02 -0.26215932366E+03  0.30388403477E+03  0.12500000000E+03 0.  0.
         25    1    1    2    0    0 -0.77185828221E+02  0.25976321887E+02 -0.23092377003E+03  0.27492400576E+03  0.12500000000E+03 0.  0.
         25    1    1    2    0    0  0.79859297800E+01 -0.82583473904E+02 -0.26543086192E+03  0.30489727400E+03  0.12500000000E+03 0.  0.
</event>
<event>
 5    0  0.5626800E-005  0.2778827E+03  0.7546771E-02  0.1096851E+00
         21   -1    0    0  502  501  0.00000000000E+00  0.00000000000E+00  0.62329123056E+03  0.62329123056E+03  0.00000000000E+00 0. -1.
         21   -1    0    0  501  502 -0.00000000000E+00 -0.00000000000E+00 -0.12388879324E+03  0.12388879324E+03  0.00000000000E+00 0. -1.
         25    1    1    2    0    0 -0.19538515410E+02  0.57202575327E+02  0.54371239745E+02  0.14911445242E+03  0.12500000000E+03 0.  0.
         25    1    1    2    0    0 -0.80417987986E+02 -0.37444261510E+01  0.32268034648E+02  0.15214236615E+03  0.12500000000E+03 0.  0.
         25    1    1    2    0    0  0.99956503396E+02 -0.53458149176E+02  0.41276316293E+03  0.44592320523E+03  0.12500000000E+03 0.  0.
</event>
<event>
 5    0  0.5626800E-005  0.2658946E+03  0.7546771E-02  0.1103652E+00
         21   -1    0    0  502  501  0.00000000000E+00  0.00000000000E+00  0.22060621564E+04  0.22060621564E+04  0.00000000000E+00 0. -1.
         21   -1    0    0  501  502 -0.00000000000E+00 -0.00000000000E+00 -0.32048021036E+02  0.32048021036E+02  0.00000000000E+00 0. -1.
         25    1    1    2    0    0  0.55383065219E+02 -0.27997461495E+02  0.62656894063E+03  0.64192272052E+03  0.12500000000E+03 0.  0.
         25    1    1    2    0    0  0.48935576006E+02  0.76529815551E+02  0.11948219683E+04  0.12047721939E+04  0.12500000000E+03 0.  0.
         25    1    1    2    0    0 -0.10431864122E+03 -0.48532354056E+02  0.35262322645E+03  0.39141526303E+03  0.12500000000E+03 0.  0.
</event>
<event>
 5    0  0.5626800E-005  0.2661890E+03  0.7546771E-02  0.1103481E+00
         21   -1    0    0  502  501  0.00000000000E+00  0.00000000000E+00  0.10148878798E+03  0.10148878798E+03  0.00000000000E+00 0. -1.
         21   -1    0    0  501  502 -0.00000000000E+00 -0.00000000000E+00 -0.69817173140E+03  0.69817173140E+03  0.00000000000E+00 0. -1.
         25    1    1    2    0    0 -0.28898528937E+02  0.11592131517E+03 -0.19594925517E+03  0.26133118239E+03  0.12500000000E+03 0.  0.
         25    1    1    2    0    0 -0.72788004978E+02 -0.85467021368E+02 -0.30560962426E+03  0.34874768509E+03  0.12500000000E+03 0.  0.
         25    1    1    2    0    0  0.10168653392E+03 -0.30454293805E+02 -0.95124063992E+02  0.18958165191E+03  0.12500000000E+03 0.  0.
</event>
<event>
 5    0  0.5626800E-005  0.4194582E+03  0.7546771E-02  0.1037243E+00
         21   -1    0    0  502  501  0.00000000000E+00  0.00000000000E+00  0.52305186626E+03  0.52305186626E+03  0.00000000000E+00 0.  1.
         21   -1    0    0  501  502 -0.00000000000E+00 -0.00000000000E+00 -0.33638197948E+03  0.33638197948E+03  0.00000000000E+00 0. -1.
         25    1    1    2    0    0  0.46393689297E+02 -0.11654297757E+03  0.35691987467E+03  0.39843623952E+03  0.12500000000E+03 0.  0.
         25    1    1    2    0    0  0.46981612719E+01 -0.10824360117E+03 -0.52564696817E+02  0.17357072698E+03  0.12500000000E+03 0.  0.
         25    1    1    2    0    0 -0.51091850569E+02  0.22478657874E+03 -0.11768529107E+03  0.28742687925E+03  0.12500000000E+03 0.  0.
</event>
<event>
 5    0  0.5626800E-005  0.3594988E+03  0.7546771E-02  0.1058782E+00
         21   -1    0    0  502  501  0.00000000000E+00  0.00000000000E+00  0.15802048816E+03  0.15802048816E+03  0.00000000000E+00 0.  1.
         21   -1    0    0  501  502 -0.00000000000E+00 -0.00000000000E+00 -0.81786486101E+03  0.81786486101E+03  0.00000000000E+00 0.  1.
         25    1    1    2    0    0  0.81192488994E+02 -0.14205651444E+03 -0.46930442771E+03  0.51248797003E+03  0.12500000000E+03 0.  0.
         25    1    1    2    0    0 -0.93547769398E+02  0.22066783959E+03 -0.15269230828E+03  0.31046001610E+03  0.12500000000E+03 0.  0.
         25    1    1    2    0    0  0.12355280404E+02 -0.78611325153E+02 -0.37847636859E+02  0.15293736303E+03  0.12500000000E+03 0.  0.
</event>
<event>
 5    0  0.5626800E-005  0.3299893E+03  0.7546771E-02  0.1071142E+00
         21   -1    0    0  502  501  0.00000000000E+00  0.00000000000E+00  0.21084148753E+04  0.21084148753E+04  0.00000000000E+00 0. -1.
         21   -1    0    0  501  502 -0.00000000000E+00 -0.00000000000E+00 -0.51646822442E+02  0.51646822442E+02  0.00000000000E+00 0. -1.
         25    1    1    2    0    0  0.51863112825E+02 -0.21338230960E+02  0.97650891871E+03  0.98607290344E+03  0.12500000000E+03 0.  0.
         25    1    1    2    0    0 -0.67193937460E+02  0.17373853979E+03  0.80107242247E+03  0.83189069684E+03  0.12500000000E+03 0.  0.
         25    1    1    2    0    0  0.15330824635E+02 -0.15240030883E+03  0.27918671169E+03  0.34209809748E+03  0.12500000000E+03 0.  0.
</event>
<event>
 5    0  0.5626800E-005  0.3064955E+03  0.7546771E-02  0.1082038E+00
         21   -1    0    0  502  501  0.00000000000E+00  0.00000000000E+00  0.60614535985E+02  0.60614535985E+02  0.00000000000E+00 0. -1.
         21   -1    0    0  501  502 -0.00000000000E+00 -0.00000000000E+00 -0.15497845249E+04  0.15497845249E+04  0.00000000000E+00 0. -1.
         25    1    1    2    0    0 -0.99717596065E+02  0.15435414122E+03 -0.33969806331E+03  0.40594158951E+03  0.12500000000E+03 0.  0.
         25    1    1    2    0    0  0.12895291005E+03 -0.77227940927E+02 -0.47690398979E+03  0.51541771734E+03  0.12500000000E+03 0.  0.
         25    1    1    2    0    0 -0.29235313981E+02 -0.77126200295E+02 -0.67256793578E+03  0.68903975400E+03  0.12500000000E+03 0.  0.
</event>
<event>
 5    0  0.5626800E-005  0.3377880E+03  0.7546771E-02  0.1067742E+00
         21   -1    0    0  502  501  0.00000000000E+00  0.00000000000E+00  0.28083258998E+04  0.28083258998E+04  0.00000000000E+00 0.  1.
         21   -1    0    0  501  502 -0.00000000000E+00 -0.00000000000E+00 -0.40629444390E+02  0.40629444390E+02  0.00000000000E+00 0.  1.
         25    1    1    2    0    0  0.77854057342E+02 -0.12389787273E+03  0.70546166789E+03  0.73124079617E+03  0.12500000000E+03 0.  0.
         25    1    1    2    0    0  0.26274169260E+02  0.97926848185E+02  0.24569560190E+03  0.29371981268E+03  0.12500000000E+03 0.  0.
         25    1    1    2    0    0 -0.10412822660E+03  0.25971024546E+02  0.18165391856E+04  0.18239947354E+04  0.12500000000E+03 0.  0.
</event>
<event>
 5    0  0.5626800E-005  0.3487603E+03  0.7546771E-02  0.1063125E+00
         21   -1    0    0  502  501  0.00000000000E+00  0.00000000000E+00  0.16922983382E+04  0.16922983382E+04  0.00000000000E+00 0. -1.
         21   -1    0    0  501  502 -0.00000000000E+00 -0.00000000000E+00 -0.71874900749E+02  0.71874900749E+02  0.00000000000E+00 0. -1.
         25    1    1    2    0    0  0.13492879833E+03 -0.91052244474E+02  0.55296215363E+03  0.58982068054E+03  0.12500000000E+03 0.  0.
         25    1    1    2    0    0  0.19736634632E+02 -0.86485766080E+02  0.72147403635E+03  0.73757650966E+03  0.12500000000E+03 0.  0.
         25    1    1    2    0    0 -0.15466543296E+03  0.17753801055E+03  0.34598724745E+03  0.43677604873E+03  0.12500000000E+03 0.  0.
</event>
<event>
 5    0  0.5626800E-005  0.2387454E+03  0.7546771E-02  0.1120631E+00
         21   -1    0    0  502  501  0.00000000000E+00  0.00000000000E+00  0.22686507451E+03  0.22686507451E+03  0.00000000000E+00 0.  1.
         21   -1    0    0  501  502 -0.00000000000E+00 -0.00000000000E+00 -0.25124794500E+03  0.25124794500E+03  0.00000000000E+00 0.  1.
         25    1    1    2    0    0  0.28569132323E+02  0.66339958071E+02 -0.52785700806E+02  0.15371569721E+03  0.12500000000E+03 0.  0.
         25    1    1    2    0    0  0.17246174142E+02 -0.21833828814E+02  0.10399221178E+03  0.16496522880E+03  0.12500000000E+03 0.  0.
         25    1    1    2    0    0 -0.45815306465E+02 -0.44506129258E+02 -0.75589381457E+02  0.15943209350E+03  0.12500000000E+03 0.  0.
</event>
<event>
 5    0  0.5626800E-005  0.4450341E+03  0.7546771E-02  0.1029213E+00
         21   -1    0    0  502  501  0.00000000000E+00  0.00000000000E+00  0.49861255001E+03  0.49861255001E+03  0.00000000000E+00 0.  1.
         21   -1    0    0  501  502 -0.00000000000E+00 -0.00000000000E+00 -0.39721289012E+03  0.39721289012E+03  0.00000000000E+00 0.  1.
         25    1    1    2    0    0  0.15285998863E+02  0.13318017704E+03 -0.44296340096E+02  0.18856772540E+03  0.12500000000E+03 0.  0.
         25    1    1    2    0    0  0.27589853381E+03  0.88255391834E+01  0.18929088576E+03  0.35728690227E+03  0.12500000000E+03 0.  0.
         25    1    1    2    0    0 -0.29118453268E+03 -0.14200571622E+03 -0.43594885778E+02  0.34997081246E+03  0.12500000000E+03 0.  0.
</event>
<event>
 5    0  0.5626800E-005  0.4315162E+03  0.7546771E-02  0.1033382E+00
         21   -1    0    0  502  501  0.00000000000E+00  0.00000000000E+00  0.12859949880E+03  0.12859949880E+03  0.00000000000E+00 0.  1.
         21   -1    0    0  501  502 -0.00000000000E+00 -0.00000000000E+00 -0.14479543978E+04  0.14479543978E+04  0.00000000000E+00 0. -1.
         25    1    1    2    0    0 -0.60126209000E+02 -0.66820941268E+01 -0.43310991030E+01  0.13893728733E+03  0.12500000000E+03 0.  0.
         25    1    1    2    0    0  0.27617852244E+03 -0.53154458276E+02 -0.54449283658E+03  0.62545776978E+03  0.12500000000E+03 0.  0.
         25    1    1    2    0    0 -0.21605231344E+03  0.59836552403E+02 -0.77053096334E+03  0.81215883953E+03  0.12500000000E+03 0.  0.
</event>
<event>
 5    0  0.5626800E-005  0.3223556E+03  0.7546771E-02  0.1074570E+00
         21   -1    0    0  502  501  0.00000000000E+00  0.00000000000E+00  0.29952481041E+03  0.29952481041E+03  0.00000000000E+00 0.  1.
         21   -1    0    0  501  502 -0.00000000000E+00 -0.00000000000E+00 -0.34692670457E+03  0.34692670457E+03  0.00000000000E+00 0.  1.
         25    1    1    2    0    0  0.91713353328E+02 -0.72661088546E+02 -0.15466234222E+03  0.23073017373E+03  0.12500000000E+03 0.  0.
         25    1    1    2    0    0  0.68336591292E+02  0.12248538952E+03  0.19275011522E+02  0.18886261256E+03  0.12500000000E+03 0.  0.
         25    1    1    2    0    0 -0.16004994462E+03 -0.49824300969E+02  0.87985436543E+02  0.22685872869E+03  0.12500000000E+03 0.  0.
</event>
<event>
 5    0  0.5626800E-005  0.3588121E+03  0.7546771E-02  0.1059055E+00
         21   -1    0    0  502  501  0.00000000000E+00  0.00000000000E+00  0.19670347010E+03  0.19670347010E+03  0.00000000000E+00 0. -1.
         21   -1    0    0  501  502 -0.00000000000E+00 -0.00000000000E+00 -0.65451879107E+03  0.65451879107E+03  0.00000000000E+00 0. -1.
         25    1    1    2    0    0  0.43128080214E+02 -0.21573614118E+03 -0.54257078735E+01  0.25309395927E+03  0.12500000000E+03 0.  0.
         25    1    1    2    0    0 -0.23449382757E+01 -0.13837426982E+02 -0.12683932651E+03  0.17863422928E+03  0.12500000000E+03 0.  0.
         25    1    1    2    0    0 -0.40783141938E+02  0.22957356816E+03 -0.32555028659E+03  0.41949407262E+03  0.12500000000E+03 0.  0.
</event>
<event>
 5    0  0.5626800E-005  0.2788131E+03  0.7546771E-02  0.1096339E+00
         21   -1    0    0  502  501  0.00000000000E+00  0.00000000000E+00  0.28026327062E+03  0.28026327062E+03  0.00000000000E+00 0.  1.
         21   -1    0    0  501  502 -0.00000000000E+00 -0.00000000000E+00 -0.27737034584E+03  0.27737034584E+03  0.00000000000E+00 0. -1.
         25    1    1    2    0    0 -0.25089729782E+02 -0.37994862385E+02 -0.24755883399E+02  0.13531798798E+03  0.12500000000E+03 0.  0.
         25    1    1    2    0    0  0.14990444544E+03 -0.76930533704E+02  0.27373482337E+02  0.21157494491E+03  0.12500000000E+03 0.  0.
         25    1    1    2    0    0 -0.12481471566E+03  0.11492539609E+03  0.27532583824E+00  0.21074068358E+03  0.12500000000E+03 0.  0.
</event>
<event>
 5    0  0.5626800E-005  0.3046327E+03  0.7546771E-02  0.1082947E+00
         21   -1    0    0  502  501  0.00000000000E+00  0.00000000000E+00  0.11307511255E+03  0.11307511255E+03  0.00000000000E+00 0. -1.
         21   -1    0    0  501  502 -0.00000000000E+00 -0.00000000000E+00 -0.82070289844E+03  0.82070289844E+03  0.00000000000E+00 0. -1.
         25    1    1    2    0    0 -0.96109738048E+01  0.17773435948E+03 -0.12847429397E+03  0.25261139635E+03  0.12500000000E+03 0.  0.
         25    1    1    2    0    0  0.12529138026E+02 -0.79643778742E+02 -0.45737286964E+03  0.48095223533E+03  0.12500000000E+03 0.  0.
         25    1    1    2    0    0 -0.29181642209E+01 -0.98090580741E+02 -0.12178062230E+03  0.20021437930E+03  0.12500000000E+03 0.  0.
</event>
<event>
 5    0  0.7283785E-005  0.2909698E+03  0.7546771E-02  0.1089844E+00
         21   -1    0    0  502  501  0.00000000000E+00  0.00000000000E+00  0.15607154719E+03  0.15607154719E+03  0.00000000000E+00 0.  1.
         21   -1    0    0  501  502 -0.00000000000E+00 -0.00000000000E+00 -0.54246534329E+03  0.54246534329E+03  0.00000000000E+00 0.  1.
         25    1    1    2    0    0 -0.13343362579E+03  0.12794807310E+03 -0.24130297339E+03  0.32867516923E+03  0.12500000000E+03 0.  0.
         25    1    1    2    0    0  0.18725529061E+02 -0.93136383706E+02 -0.24690796691E+02  0.15893290046E+03  0.12500000000E+03 0.  0.
         25    1    1    2    0    0  0.11470809673E+03 -0.34811689395E+02 -0.12040002602E+03  0.21092882079E+03  0.12500000000E+03 0.  0.
</event>
<event>
 5    0  0.5626800E-005  0.3226214E+03  0.7546771E-02  0.1074449E+00
         21   -1    0    0  502  501  0.00000000000E+00  0.00000000000E+00  0.62521143680E+03  0.62521143680E+03  0.00000000000E+00 0. -1.
         21   -1    0    0  501  502 -0.00000000000E+00 -0.00000000000E+00 -0.16647897704E+03  0.16647897704E+03  0.00000000000E+00 0. -1.
         25    1    1    2    0    0 -0.61616967589E+01  0.77864536686E+02 -0.16280568324E+02  0.14829332246E+03  0.12500000000E+03 0.  0.
         25    1    1    2    0    0 -0.15257770973E+03 -0.95567440862E+02  0.17124682008E+03  0.27814306867E+03  0.12500000000E+03 0.  0.
         25    1    1    2    0    0  0.15873940649E+03  0.17702904176E+02  0.30376620800E+03  0.36525402272E+03  0.12500000000E+03 0.  0.
</event>
<event>
 5    0  0.5626800E-005  0.3608752E+03  0.7546771E-02  0.1058238E+00
         21   -1    0    0  502  501  0.00000000000E+00  0.00000000000E+00  0.19099805154E+03  0.19099805154E+03  0.00000000000E+00 0. -1.
         21   -1    0    0  501  502 -0.00000000000E+00 -0.00000000000E+00 -0.68184424169E+03  0.68184424169E+03  0.00000000000E+00 0. -1.
         25    1    1    2    0    0  0.40199465986E+02 -0.19135236870E+03 -0.36605971287E+03  0.43342408731E+03  0.12500000000E+03 0.  0.
         25    1    1    2    0    0 -0.18712803187E+02  0.24333277998E+03 -0.12733085023E+03  0.30232293369E+03  0.12500000000E+03 0.  0.
         25    1    1    2    0    0 -0.21486662799E+02 -0.51980411275E+02  0.25443729571E+01  0.13709527223E+03  0.12500000000E+03 0.  0.
</event>
<event>
 5    0  0.5626800E-005  0.2550984E+03  0.7546771E-02  0.1110125E+00
         21   -1    0    0  502  501  0.00000000000E+00  0.00000000000E+00  0.91616495377E+03  0.91616495377E+03  0.00000000000E+00 0.  1.
         21   -1    0    0  501  502 -0.00000000000E+00 -0.00000000000E+00 -0.71029975259E+02  0.71029975259E+02  0.00000000000E+00 0.  1.
         25    1    1    2    0    0 -0.71796778040E+02  0.42856492123E+02  0.23987313688E+03  0.28311760463E+03  0.12500000000E+03 0.  0.
         25    1    1    2    0    0 -0.52171808683E+02  0.17527195306E+02  0.11120442249E+03  0.17612644259E+03  0.12500000000E+03 0.  0.
         25    1    1    2    0    0  0.12396858672E+03 -0.60383687428E+02  0.49405741914E+03  0.52795088182E+03  0.12500000000E+03 0.  0.
</event>
<event>
 5    0  0.5626800E-005  0.2577132E+03  0.7546771E-02  0.1108525E+00
         21   -1    0    0  502  501  0.00000000000E+00  0.00000000000E+00  0.19735963596E+03  0.19735963596E+03  0.00000000000E+00 0.  1.
         21   -1    0    0  501  502 -0.00000000000E+00 -0.00000000000E+00 -0.33652328937E+03  0.33652328937E+03  0.00000000000E+00 0.  1.
         25    1    1    2    0    0  0.96483839338E+01 -0.68930253318E+02  0.66148005300E+02  0.15762306221E+03  0.12500000000E+03 0.  0.
         25    1    1    2    0    0  0.76067132530E+02 -0.38126965044E+01 -0.10907031895E+03  0.18254336412E+03  0.12500000000E+03 0.  0.
         25    1    1    2    0    0 -0.85715516464E+02  0.72742949822E+02 -0.96241339752E+02  0.19371649901E+03  0.12500000000E+03 0.  0.
</event>
<event>
 5    0  0.5626800E-005  0.3067964E+03  0.7546771E-02  0.1081892E+00
         21   -1    0    0  502  501  0.00000000000E+00  0.00000000000E+00  0.30032707376E+03  0.30032707376E+03  0.00000000000E+00 0. -1.
         21   -1    0    0  501  502 -0.00000000000E+00 -0.00000000000E+00 -0.31340505296E+03  0.31340505296E+03  0.00000000000E+00 0. -1.
         25    1    1    2    0    0  0.70359586932E+02  0.18661871437E+03  0.11709215956E+02  0.23566739648E+03  0.12500000000E+03 0.  0.
         25    1    1    2    0    0  0.55039377902E+02 -0.13562184978E+03 -0.22552848890E+02  0.19379435041E+03  0.12500000000E+03 0.  0.
         25    1    1    2    0    0 -0.12539896483E+03 -0.50996864598E+02 -0.22343462684E+01  0.18427037983E+03  0.12500000000E+03 0.  0.
</event>
<event>
 5    0  0.5626800E-005  0.3303187E+03  0.7546771E-02  0.1070996E+00
         21   -1    0    0  502  501  0.00000000000E+00  0.00000000000E+00  0.80743208883E+03  0.80743208883E+03  0.00000000000E+00 0.  1.
         21   -1    0    0  501  502 -0.00000000000E+00 -0.00000000000E+00 -0.13513268685E+03  0.13513268685E+03  0.00000000000E+00 0.  1.
         25    1    1    2    0    0  0.74603226148E+01  0.53777596861E+02  0.23414522249E+03  0.27091820085E+03  0.12500000000E+03 0.  0.
         25    1    1    2    0    0 -0.19014963359E+02  0.13163082716E+03  0.40639182155E+03  0.44549697655E+03  0.12500000000E+03 0.  0.
         25    1    1    2    0    0  0.11554640744E+02 -0.18540842402E+03  0.31762357939E+02  0.22614959828E+03  0.12500000000E+03 0.  0.
</event>
<event>
 5    0  0.5626800E-005  0.3201495E+03  0.7546771E-02  0.1075581E+00
         21   -1    0    0  502  501  0.00000000000E+00  0.00000000000E+00  0.28044719734E+03  0.28044719734E+03  0.00000000000E+00 0. -1.
         21   -1    0    0  501  502 -0.00000000000E+00 -0.00000000000E+00 -0.36547234663E+03  0.36547234663E+03  0.00000000000E+00 0. -1.
         25    1    1    2    0    0 -0.87897395719E+01  0.52153208292E+02  0.84016321272E+01  0.13598824978E+03  0.12500000000E+03 0.  0.
         25    1    1    2    0    0  0.99526252315E+02 -0.15928914655E+03  0.94056967921E+02  0.24443858190E+03  0.12500000000E+03 0.  0.
         25    1    1    2    0    0 -0.90736512743E+02  0.10713593826E+03 -0.18748374934E+03  0.26549271229E+03  0.12500000000E+03 0.  0.
</event>
<event>
 5    0  0.7154695E-005  0.7580417E+03  0.7546771E-02  0.9622818E-01
         21   -1    0    0  502  501  0.00000000000E+00  0.00000000000E+00  0.10223810331E+04  0.10223810331E+04  0.00000000000E+00 0.  1.
         21   -1    0    0  501  502 -0.00000000000E+00 -0.00000000000E+00 -0.56204804271E+03  0.56204804271E+03  0.00000000000E+00 0.  1.
         25    1    1    2    0    0  0.36490753548E+03  0.15323051532E+03 -0.30718592217E+03  0.51635771618E+03  0.12500000000E+03 0.  0.
         25    1    1    2    0    0 -0.44113155032E+03 -0.16364557768E+03  0.28587357396E+03  0.56455789789E+03  0.12500000000E+03 0.  0.
         25    1    1    2    0    0  0.76224014832E+02  0.10415062359E+02  0.48164533860E+03  0.50351346174E+03  0.12500000000E+03 0.  0.
</event>
<event>
 5    0  0.5626800E-005  0.6845587E+03  0.7546771E-02  0.9744009E-01
         21   -1    0    0  502  501  0.00000000000E+00  0.00000000000E+00  0.14571971809E+03  0.14571971809E+03  0.00000000000E+00 0.  1.
         21   -1    0    0  501  502 -0.00000000000E+00 -0.00000000000E+00 -0.32159036021E+04  0.32159036021E+04  0.00000000000E+00 0. -1.
         25    1    1    2    0    0  0.56546979000E+02 -0.14548772722E+03 -0.35299419829E+03  0.40570203800E+03  0.12500000000E+03 0.  0.
         25    1    1    2    0    0 -0.14951123717E+03  0.62612265238E+03 -0.16348564954E+04  0.17614664193E+04  0.12500000000E+03 0.  0.
         25    1    1    2    0    0  0.92964258165E+02 -0.48063492515E+03 -0.10823331903E+04  0.11944548629E+04  0.12500000000E+03 0.  0.
</event>
<event>
 5    0  0.5626800E-005  0.2611233E+03  0.7546771E-02  0.1106470E+00
         21   -1    0    0  502  501  0.00000000000E+00  0.00000000000E+00  0.13010821120E+04  0.13010821120E+04  0.00000000000E+00 0.  1.
         21   -1    0    0  501  502 -0.00000000000E+00 -0.00000000000E+00 -0.52406673753E+02  0.52406673753E+02  0.00000000000E+00 0.  1.
         25    1    1    2    0    0 -0.67285212294E+02 -0.88068260239E+01  0.45270886838E+03  0.47452626849E+03  0.12500000000E+03 0.  0.
         25    1    1    2    0    0 -0.86152069287E+02 -0.45310522851E+02  0.25286495799E+03  0.29839723441E+03  0.12500000000E+03 0.  0.
         25    1    1    2    0    0  0.15343728158E+03  0.54117348875E+02  0.54310161183E+03  0.58056528281E+03  0.12500000000E+03 0.  0.
</event>
<event>
 5    0  0.5626800E-005  0.2598007E+03  0.7546771E-02  0.1107263E+00
         21   -1    0    0  502  501  0.00000000000E+00  0.00000000000E+00  0.13911552412E+03  0.13911552412E+03  0.00000000000E+00 0.  1.
         21   -1    0    0  501  502 -0.00000000000E+00 -0.00000000000E+00 -0.48518248722E+03  0.48518248722E+03  0.00000000000E+00 0.  1.
         25    1    1    2    0    0 -0.27756526531E+02  0.41459482733E+02 -0.17570847438E+03  0.22133183558E+03  0.12500000000E+03 0.  0.
         25    1    1    2    0    0 -0.29080537600E+02 -0.10445570421E+03  0.12294426324E+02  0.16593018028E+03  0.12500000000E+03 0.  0.
         25    1    1    2    0    0  0.56837064131E+02  0.62996221481E+02 -0.18265291504E+03  0.23703599548E+03  0.12500000000E+03 0.  0.
</event>
<event>
 5    0  0.5626800E-005  0.2066398E+03  0.7546771E-02  0.1144255E+00
         21   -1    0    0  502  501  0.00000000000E+00  0.00000000000E+00  0.32773161323E+03  0.32773161323E+03  0.00000000000E+00 0.  1.
         21   -1    0    0  501  502 -0.00000000000E+00 -0.00000000000E+00 -0.13028957127E+03  0.13028957127E+03  0.00000000000E+00 0.  1.
         25    1    1    2    0    0  0.46965781699E+01  0.14714943559E+02  0.23175241741E+02  0.12806513671E+03  0.12500000000E+03 0.  0.
         25    1    1    2    0    0 -0.11025474200E+02 -0.64815430997E+02  0.11731931112E+03  0.18360670450E+03  0.12500000000E+03 0.  0.
         25    1    1    2    0    0  0.63288960306E+01  0.50100487437E+02  0.56947489103E+02  0.14634934329E+03  0.12500000000E+03 0.  0.
</event>
<event>
 5    0  0.5626800E-005  0.4067986E+03  0.7546771E-02  0.1041451E+00
         21   -1    0    0  502  501  0.00000000000E+00  0.00000000000E+00  0.14108149023E+03  0.14108149023E+03  0.00000000000E+00 0.  1.
         21   -1    0    0  501  502 -0.00000000000E+00 -0.00000000000E+00 -0.11729750011E+04  0.11729750011E+04  0.00000000000E+00 0.  1.
         25    1    1    2    0    0 -0.10724281670E+03 -0.18460418197E+03 -0.51364803010E+03  0.57012193832E+03  0.12500000000E+03 0.  0.
         25    1    1    2    0    0  0.22129714202E+03  0.52873661518E+02 -0.44889470191E+03  0.51855520685E+03  0.12500000000E+03 0.  0.
         25    1    1    2    0    0 -0.11405432533E+03  0.13173052045E+03 -0.69350778848E+02  0.22537934615E+03  0.12500000000E+03 0.  0.
</event>
<event>
 5    0  0.5626800E-005  0.2988039E+03  0.7546771E-02  0.1085840E+00
         21   -1    0    0  502  501  0.00000000000E+00  0.00000000000E+00  0.33242643122E+03  0.33242643122E+03  0.00000000000E+00 0. -1.
         21   -1    0    0  501  502 -0.00000000000E+00 -0.00000000000E+00 -0.26858201703E+03  0.26858201703E+03  0.00000000000E+00 0. -1.
         25    1    1    2    0    0 -0.13484043519E+03  0.69332311673E+01 -0.47597719315E+02  0.19005408583E+03  0.12500000000E+03 0.  0.
         25    1    1    2    0    0 -0.38238818183E+02 -0.93406263930E+02  0.76604894878E+02  0.17798945833E+03  0.12500000000E+03 0.  0.
         25    1    1    2    0    0  0.17307925338E+03  0.86473032762E+02  0.34837238621E+02  0.23296490409E+03  0.12500000000E+03 0.  0.
</event>
<event>
 5    0  0.5626800E-005  0.3120138E+03  0.7546771E-02  0.1079385E+00
         21   -1    0    0  502  501  0.00000000000E+00  0.00000000000E+00  0.19703806802E+03  0.19703806802E+03  0.00000000000E+00 0. -1.
         21   -1    0    0  501  502 -0.00000000000E+00 -0.00000000000E+00 -0.49408014013E+03  0.49408014013E+03  0.00000000000E+00 0. -1.
         25    1    1    2    0    0  0.83502934455E+02  0.17365575556E+03 -0.18793303659E+03  0.29677076632E+03  0.12500000000E+03 0.  0.
         25    1    1    2    0    0  0.43988804500E+02 -0.12159462334E+03 -0.22708478653E+01  0.17986223644E+03  0.12500000000E+03 0.  0.
         25    1    1    2    0    0 -0.12749173896E+03 -0.52061132227E+02 -0.10683818766E+03  0.21448520539E+03  0.12500000000E+03 0.  0.
</event>
<event>
 5    0  0.5626800E-005  0.2306412E+03  0.7546771E-02  0.1126189E+00
         21   -1    0    0  502  501  0.00000000000E+00  0.00000000000E+00  0.59727708915E+03  0.59727708915E+03  0.00000000000E+00 0.  1.
         21   -1    0    0  501  502 -0.00000000000E+00 -0.00000000000E+00 -0.89063089695E+02  0.89063089695E+02  0.00000000000E+00 0.  1.
         25    1    1    2    0    0  0.20738882795E+02 -0.39549281729E+02  0.22431461475E+03  0.26064591563E+03  0.12500000000E+03 0.  0.
         25    1    1    2    0    0  0.77071570674E+02 -0.17933537149E+02  0.14395959009E+03  0.20642432594E+03  0.12500000000E+03 0.  0.
         25    1    1    2    0    0 -0.97810453470E+02  0.57482818878E+02  0.13993979461E+03  0.21926993727E+03  0.12500000000E+03 0.  0.
</event>
<event>
 5    0  0.5626800E-005  0.2682964E+03  0.7546771E-02  0.1102259E+00
         21   -1    0    0  502  501  0.00000000000E+00  0.00000000000E+00  0.47218184022E+03  0.47218184022E+03  0.00000000000E+00 0. -1.
         21   -1    0    0  501  502 -0.00000000000E+00 -0.00000000000E+00 -0.15244758385E+03  0.15244758385E+03  0.00000000000E+00 0. -1.
         25    1    1    2    0    0  0.73827020362E+01  0.12730730065E+02  0.36950466948E+02  0.13117512258E+03  0.12500000000E+03 0.  0.
         25    1    1    2    0    0  0.12712474712E+03 -0.96298620644E+02  0.14375419731E+03  0.24844394722E+03  0.12500000000E+03 0.  0.
         25    1    1    2    0    0 -0.13450744915E+03  0.83567890579E+02  0.13902959212E+03  0.24501035427E+03  0.12500000000E+03 0.  0.
</event>
<event>
 5    0  0.5626800E-005  0.3556200E+03  0.7546771E-02  0.1060332E+00
         21   -1    0    0  502  501  0.00000000000E+00  0.00000000000E+00  0.23462516041E+03  0.23462516041E+03  0.00000000000E+00 0. -1.
         21   -1    0    0  501  502 -0.00000000000E+00 -0.00000000000E+00 -0.53901106284E+03  0.53901106284E+03  0.00000000000E+00 0. -1.
         25    1    1    2    0    0 -0.17960735941E+03 -0.83540038890E+02 -0.21536040555E+03  0.31818680980E+03  0.12500000000E+03 0.  0.
         25    1    1    2    0    0  0.23738227849E+03 -0.23343945878E+02 -0.27958227815E+02  0.27074332577E+03  0.12500000000E+03 0.  0.
         25    1    1    2    0    0 -0.57774919072E+02  0.10688398477E+03 -0.61067269060E+02  0.18470608767E+03  0.12500000000E+03 0.  0.
</event>
<event>
 5    0  0.5626800E-005  0.3333859E+03  0.7546771E-02  0.1069648E+00
         21   -1    0    0  502  501  0.00000000000E+00  0.00000000000E+00  0.68041581312E+02  0.68041581312E+02  0.00000000000E+00 0. -1.
         21   -1    0    0  501  502 -0.00000000000E+00 -0.00000000000E+00 -0.16335034960E+04  0.16335034960E+04  0.00000000000E+00 0. -1.
         25    1    1    2    0    0 -0.11536033476E+03 -0.10737563295E+03 -0.33770677900E+03  0.39307556776E+03  0.12500000000E+03 0.  0.
         25    1    1    2    0    0  0.87812922614E+02  0.21240545555E+03 -0.94748528207E+03  0.98294483399E+03  0.12500000000E+03 0.  0.
         25    1    1    2    0    0  0.27547412150E+02 -0.10502982260E+03 -0.28026985359E+03  0.32552467554E+03  0.12500000000E+03 0.  0.
</event>
<event>
 5    0  0.5626800E-005  0.2574551E+03  0.7546771E-02  0.1108682E+00
         21   -1    0    0  502  501  0.00000000000E+00  0.00000000000E+00  0.16258627454E+04  0.16258627454E+04  0.00000000000E+00 0. -1.
         21   -1    0    0  501  502 -0.00000000000E+00 -0.00000000000E+00 -0.40767978330E+02  0.40767978330E+02  0.00000000000E+00 0. -1.
         25    1    1    2    0    0 -0.32165708728E+01  0.30369794645E+02  0.29802065211E+03  0.32461358542E+03  0.12500000000E+03 0.  0.
         25    1    1    2    0    0 -0.11173310170E+03 -0.57267480752E+02  0.38642823293E+03  0.42510660965E+03  0.12500000000E+03 0.  0.
         25    1    1    2    0    0  0.11494967257E+03  0.26897686107E+02  0.90064588208E+03  0.91691052870E+03  0.12500000000E+03 0.  0.
</event>
<event>
 5    0  0.5626800E-005  0.9431913E+03  0.7546771E-02  0.9373144E-01
         21   -1    0    0  502  501  0.00000000000E+00  0.00000000000E+00  0.78110953411E+03  0.78110953411E+03  0.00000000000E+00 0.  1.
         21   -1    0    0  501  502 -0.00000000000E+00 -0.00000000000E+00 -0.11389054031E+04  0.11389054031E+04  0.00000000000E+00 0.  1.
         25    1    1    2    0    0 -0.15558628567E+03 -0.10296936433E+03 -0.36614923445E+03  0.42953468331E+03  0.12500000000E+03 0.  0.
         25    1    1    2    0    0 -0.32617734907E+03 -0.11683779281E+03 -0.58129008942E+03  0.68816124631E+03  0.12500000000E+03 0.  0.
         25    1    1    2    0    0  0.48176363474E+03  0.21980715713E+03  0.58964345486E+03  0.80231900759E+03  0.12500000000E+03 0.  0.
</event>
<event>
 5    0  0.5626800E-005  0.3346945E+03  0.7546771E-02  0.1069078E+00
         21   -1    0    0  502  501  0.00000000000E+00  0.00000000000E+00  0.18958081446E+03  0.18958081446E+03  0.00000000000E+00 0. -1.
         21   -1    0    0  501  502 -0.00000000000E+00 -0.00000000000E+00 -0.59088470232E+03  0.59088470232E+03  0.00000000000E+00 0. -1.
         25    1    1    2    0    0 -0.50569118636E+02 -0.63837423599E+02 -0.18422535326E+03  0.23705786887E+03  0.12500000000E+03 0.  0.
         25    1    1    2    0    0  0.14004242464E+03  0.12830159599E+03 -0.28398183701E+03  0.36379096193E+03  0.12500000000E+03 0.  0.
         25    1    1    2    0    0 -0.89473305999E+02 -0.64464172388E+02  0.66903302404E+02  0.17961668598E+03  0.12500000000E+03 0.  0.
</event>
<event>
 5    0  0.5626800E-005  0.3098464E+03  0.7546771E-02  0.1080420E+00
         21   -1    0    0  502  501  0.00000000000E+00  0.00000000000E+00  0.20280350259E+03  0.20280350259E+03  0.00000000000E+00 0.  1.
         21   -1    0    0  501  502 -0.00000000000E+00 -0.00000000000E+00 -0.47338834739E+03  0.47338834739E+03  0.00000000000E+00 0.  1.
         25    1    1    2    0    0 -0.38368501568E+02 -0.62191401421E+02  0.11199407412E+03  0.18305077154E+03  0.12500000000E+03 0.  0.
         25    1    1    2    0    0 -0.46370745591E+02  0.84983709563E+02 -0.18324858693E+03  0.24202793547E+03  0.12500000000E+03 0.  0.
         25    1    1    2    0    0  0.84739247159E+02 -0.22792308142E+02 -0.19933033200E+03  0.25111314297E+03  0.12500000000E+03 0.  0.
</event>
<event>
 5    0  0.5626800E-005  0.3192937E+03  0.7546771E-02  0.1075975E+00
         21   -1    0    0  502  501  0.00000000000E+00  0.00000000000E+00  0.16392357263E+03  0.16392357263E+03  0.00000000000E+00 0. -1.
         21   -1    0    0  501  502 -0.00000000000E+00 -0.00000000000E+00 -0.62192686959E+03  0.62192686959E+03  0.00000000000E+00 0. -1.
         25    1    1    2    0    0 -0.16198002485E+03 -0.71910039581E+01 -0.26440769125E+03  0.33440344822E+03  0.12500000000E+03 0.  0.
         25    1    1    2    0    0  0.11072306543E+02 -0.98334141680E+02 -0.16087921844E+03  0.22649353703E+03  0.12500000000E+03 0.  0.
         25    1    1    2    0    0  0.15090771831E+03  0.10552514564E+03 -0.32716387270E+02  0.22495345697E+03  0.12500000000E+03 0.  0.
</event>
<event>
 5    0  0.5626800E-005  0.4490974E+03  0.7546771E-02  0.1027992E+00
         21   -1    0    0  502  501  0.00000000000E+00  0.00000000000E+00  0.20141741821E+04  0.20141741821E+04  0.00000000000E+00 0. -1.
         21   -1    0    0  501  502 -0.00000000000E+00 -0.00000000000E+00 -0.10013459080E+03  0.10013459080E+03  0.00000000000E+00 0. -1.
         25    1    1    2    0    0 -0.26875977860E+03 -0.68117267890E+02  0.32163877651E+03  0.44266046055E+03  0.12500000000E+03 0.  0.
         25    1    1    2    0    0  0.19391550299E+03 -0.34172113739E+02  0.37722626173E+03  0.44350378600E+03  0.12500000000E+03 0.  0.
         25    1    1    2    0    0  0.74844275604E+02  0.10228938163E+03  0.12151745531E+04  0.12281445263E+04  0.12500000000E+03 0.  0.
</event>
<event>
 5    0  0.5626800E-005  0.3443306E+03  0.7546771E-02  0.1064966E+00
         21   -1    0    0  502  501  0.00000000000E+00  0.00000000000E+00  0.34198674999E+03  0.34198674999E+03  0.00000000000E+00 0.  1.
         21   -1    0    0  501  502 -0.00000000000E+00 -0.00000000000E+00 -0.34669055569E+03  0.34669055569E+03  0.00000000000E+00 0.  1.
         25    1    1    2    0    0  0.19997463746E+03  0.84867005926E+02 -0.13450736799E+03  0.28444594630E+03  0.12500000000E+03 0.  0.
         25    1    1    2    0    0 -0.16490270734E+03 -0.12873624665E+03  0.10310712389E+03  0.26461670976E+03  0.12500000000E+03 0.  0.
         25    1    1    2    0    0 -0.35071930123E+02  0.43869240720E+02  0.26696438404E+02  0.13961464962E+03  0.12500000000E+03 0.  0.
</event>
<event>
 5    0  0.5626800E-005  0.3954675E+03  0.7546771E-02  0.1045361E+00
         21   -1    0    0  502  501  0.00000000000E+00  0.00000000000E+00  0.38286881417E+03  0.38286881417E+03  0.00000000000E+00 0. -1.
         21   -1    0    0  501  502 -0.00000000000E+00 -0.00000000000E+00 -0.40848075176E+03  0.40848075176E+03  0.00000000000E+00 0. -1.
         25    1    1    2    0    0 -0.45236925478E+02  0.10061085583E+03  0.11203879870E+03  0.20086467124E+03  0.12500000000E+03 0.  0.
         25    1    1    2    0    0  0.19018561457E+03  0.51953001101E+02 -0.23110131066E+03  0.32848515659E+03  0.12500000000E+03 0.  0.
         25    1    1    2    0    0 -0.14494868909E+03 -0.15256385693E+03  0.93450574375E+02  0.26199973810E+03  0.12500000000E+03 0.  0.
</event>
<event>
 5    0  0.5626800E-005  0.2553340E+03  0.7546771E-02  0.1109980E+00
         21   -1    0    0  502  501  0.00000000000E+00  0.00000000000E+00  0.35721370306E+03  0.35721370306E+03  0.00000000000E+00 0.  1.
         21   -1    0    0  501  502 -0.00000000000E+00 -0.00000000000E+00 -0.18251107235E+03  0.18251107235E+03  0.00000000000E+00 0.  1.
         25    1    1    2    0    0 -0.11107576993E+03 -0.47253516831E+01  0.40352419729E+02  0.17208565714E+03  0.12500000000E+03 0.  0.
         25    1    1    2    0    0 -0.50606273376E+02 -0.17497091480E+02  0.42426189014E+02  0.14245042867E+03  0.12500000000E+03 0.  0.
         25    1    1    2    0    0  0.16168204330E+03  0.22222443163E+02  0.91924021966E+02  0.22518868960E+03  0.12500000000E+03 0.  0.
</event>
<event>
 5    0  0.5626800E-005  0.3896428E+03  0.7546771E-02  0.1047426E+00
         21   -1    0    0  502  501  0.00000000000E+00  0.00000000000E+00  0.18400894676E+03  0.18400894676E+03  0.00000000000E+00 0.  1.
         21   -1    0    0  501  502 -0.00000000000E+00 -0.00000000000E+00 -0.82507659671E+03  0.82507659671E+03  0.00000000000E+00 0.  1.
         25    1    1    2    0    0  0.12850127159E+03 -0.10212049966E+03 -0.36578202427E+02  0.20953314331E+03  0.12500000000E+03 0.  0.
         25    1    1    2    0    0 -0.33544676907E+02  0.16625334665E+03 -0.45686169164E+02  0.21558674976E+03  0.12500000000E+03 0.  0.
         25    1    1    2    0    0 -0.94956594682E+02 -0.64132846989E+02 -0.55880327836E+03  0.58396565040E+03  0.12500000000E+03 0.  0.
</event>
<event>
 5    0  0.5626800E-005  0.3511217E+03  0.7546771E-02  0.1062156E+00
         21   -1    0    0  502  501  0.00000000000E+00  0.00000000000E+00  0.31868729525E+03  0.31868729525E+03  0.00000000000E+00 0.  1.
         21   -1    0    0  501  502 -0.00000000000E+00 -0.00000000000E+00 -0.38685719342E+03  0.38685719342E+03  0.00000000000E+00 0.  1.
         25    1    1    2    0    0 -0.53367098835E+02 -0.18146437222E+03  0.62960985098E+02  0.23530076768E+03  0.12500000000E+03 0.  0.
         25    1    1    2    0    0  0.57082791440E+02 -0.30303006920E+02  0.65643459691E+02  0.15527646669E+03  0.12500000000E+03 0.  0.
         25    1    1    2    0    0 -0.37156926047E+01  0.21176737914E+03 -0.19677434296E+03  0.31496725431E+03  0.12500000000E+03 0.  0.
</event>
<event>
 5    0  0.5626800E-005  0.3014503E+03  0.7546771E-02  0.1084518E+00
         21   -1    0    0  502  501  0.00000000000E+00  0.00000000000E+00  0.65185046627E+03  0.65185046627E+03  0.00000000000E+00 0. -1.
         21   -1    0    0  501  502 -0.00000000000E+00 -0.00000000000E+00 -0.13940660393E+03  0.13940660393E+03  0.00000000000E+00 0. -1.
         25    1    1    2    0    0 -0.75907682224E+02 -0.14878899323E+03  0.29630868693E+03  0.36238650455E+03  0.12500000000E+03 0.  0.
         25    1    1    2    0    0  0.42209273886E+02  0.15636395080E+03  0.21827881299E+03  0.29916876193E+03  0.12500000000E+03 0.  0.
         25    1    1    2    0    0  0.33698408339E+02 -0.75749575706E+01 -0.21436375931E+01  0.12970180372E+03  0.12500000000E+03 0.  0.
</event>
<event>
 5    0  0.5626800E-005  0.4346162E+03  0.7546771E-02  0.1032412E+00
         21   -1    0    0  502  501  0.00000000000E+00  0.00000000000E+00  0.14904141875E+03  0.14904141875E+03  0.00000000000E+00 0. -1.
         21   -1    0    0  501  502 -0.00000000000E+00 -0.00000000000E+00 -0.12673741774E+04  0.12673741774E+04  0.00000000000E+00 0. -1.
         25    1    1    2    0    0 -0.17468250188E+03 -0.29496763789E+03 -0.76682750795E+03  0.84921688090E+03  0.12500000000E+03 0.  0.
         25    1    1    2    0    0  0.17771431066E+02  0.15626001248E+03 -0.14744433491E+03  0.24919439632E+03  0.12500000000E+03 0.  0.
         25    1    1    2    0    0  0.15691107081E+03  0.13870762540E+03 -0.20406091576E+03  0.31800431889E+03  0.12500000000E+03 0.  0.
</event>
<event>
 5    0  0.5626800E-005  0.2110687E+03  0.7546771E-02  0.1140722E+00
         21   -1    0    0  502  501  0.00000000000E+00  0.00000000000E+00  0.14609186444E+03  0.14609186444E+03  0.00000000000E+00 0.  1.
         21   -1    0    0  501  502 -0.00000000000E+00 -0.00000000000E+00 -0.30494518863E+03  0.30494518863E+03  0.00000000000E+00 0.  1.
         25    1    1    2    0    0 -0.14915809739E+02 -0.61094785746E+01 -0.94246103505E+02  0.15737577684E+03  0.12500000000E+03 0.  0.
         25    1    1    2    0    0 -0.16959225438E+02  0.48213354012E+02  0.15742690452E+02  0.13595946137E+03  0.12500000000E+03 0.  0.
         25    1    1    2    0    0  0.31875035176E+02 -0.42103875438E+02 -0.80349911138E+02  0.15770181487E+03  0.12500000000E+03 0.  0.
</event>
<event>
 5    0  0.5626800E-005  0.2574795E+03  0.7546771E-02  0.1108667E+00
         21   -1    0    0  502  501  0.00000000000E+00  0.00000000000E+00  0.19323432967E+03  0.19323432967E+03  0.00000000000E+00 0.  1.
         21   -1    0    0  501  502 -0.00000000000E+00 -0.00000000000E+00 -0.34308457569E+03  0.34308457569E+03  0.00000000000E+00 0.  1.
         25    1    1    2    0    0  0.25623503521E+01  0.12039727287E+02 -0.11360629772E+03  0.16936030100E+03  0.12500000000E+03 0.  0.
         25    1    1    2    0    0  0.51535954870E+02 -0.12800423506E+03 -0.14357612422E+02  0.18674094322E+03  0.12500000000E+03 0.  0.
         25    1    1    2    0    0 -0.54098305222E+02  0.11596450778E+03 -0.21886335868E+02  0.18021766115E+03  0.12500000000E+03 0.  0.
</event>
<event>
 5    0  0.5626800E-005  0.3507394E+03  0.7546771E-02  0.1062312E+00
         21   -1    0    0  502  501  0.00000000000E+00  0.00000000000E+00  0.20006653153E+03  0.20006653153E+03  0.00000000000E+00 0. -1.
         21   -1    0    0  501  502 -0.00000000000E+00 -0.00000000000E+00 -0.61488612294E+03  0.61488612294E+03  0.00000000000E+00 0. -1.
         25    1    1    2    0    0 -0.43580345025E+02 -0.51582797872E+01  0.85857054134E+02  0.15786794503E+03  0.12500000000E+03 0.  0.
         25    1    1    2    0    0 -0.12831261603E+03  0.45634635743E+02 -0.12367688450E+03  0.22241317221E+03  0.12500000000E+03 0.  0.
         25    1    1    2    0    0  0.17189296106E+03 -0.40476355956E+02 -0.37699976104E+03  0.43467153723E+03  0.12500000000E+03 0.  0.
</event>
<event>
 5    0  0.5626800E-005  0.2154699E+03  0.7546771E-02  0.1137306E+00
         21   -1    0    0  502  501  0.00000000000E+00  0.00000000000E+00  0.31398268412E+03  0.31398268412E+03  0.00000000000E+00 0. -1.
         21   -1    0    0  501  502 -0.00000000000E+00 -0.00000000000E+00 -0.14786574612E+03  0.14786574612E+03  0.00000000000E+00 0. -1.
         25    1    1    2    0    0 -0.21937921854E+02  0.92086800300E+01  0.11055246818E+03  0.16856132541E+03  0.12500000000E+03 0.  0.
         25    1    1    2    0    0  0.38480569228E+02 -0.33430076367E+02  0.87638076504E+02  0.16094644037E+03  0.12500000000E+03 0.  0.
         25    1    1    2    0    0 -0.16542647375E+02  0.24221396337E+02 -0.32073606694E+02  0.13234066446E+03  0.12500000000E+03 0.  0.
</event>
<event>
 5    0  0.5626800E-005  0.2879481E+03  0.7546771E-02  0.1091425E+00
         21   -1    0    0  502  501  0.00000000000E+00  0.00000000000E+00  0.29521621630E+03  0.29521621630E+03  0.00000000000E+00 0. -1.
         21   -1    0    0  501  502 -0.00000000000E+00 -0.00000000000E+00 -0.28085901550E+03  0.28085901550E+03  0.00000000000E+00 0. -1.
         25    1    1    2    0    0  0.10760142426E+03 -0.61388596528E+02  0.14464019733E+03  0.22779906271E+03  0.12500000000E+03 0.  0.
         25    1    1    2    0    0  0.26082208099E+02  0.56146957711E+02 -0.64985974538E+02  0.15388612454E+03  0.12500000000E+03 0.  0.
         25    1    1    2    0    0 -0.13368363236E+03  0.52416388162E+01 -0.65297021990E+02  0.19439004455E+03  0.12500000000E+03 0.  0.
</event>
<event>
 5    0  0.5626800E-005  0.3251929E+03  0.7546771E-02  0.1073284E+00
         21   -1    0    0  502  501  0.00000000000E+00  0.00000000000E+00  0.19636332507E+03  0.19636332507E+03  0.00000000000E+00 0. -1.
         21   -1    0    0  501  502 -0.00000000000E+00 -0.00000000000E+00 -0.53854471173E+03  0.53854471173E+03  0.00000000000E+00 0. -1.
         25    1    1    2    0    0 -0.55271045121E+02 -0.95077957451E+02 -0.14265127518E+03  0.21924664817E+03  0.12500000000E+03 0.  0.
         25    1    1    2    0    0 -0.95832364699E+01 -0.39916957928E+02  0.95074614915E+02  0.16232493448E+03  0.12500000000E+03 0.  0.
         25    1    1    2    0    0  0.64854281591E+02  0.13499491538E+03 -0.29460472640E+03  0.35333645416E+03  0.12500000000E+03 0.  0.
</event>
<event>
 5    0  0.5626901E-005  0.4299007E+03  0.7546771E-02  0.1033891E+00
         21   -1    0    0  502  501  0.00000000000E+00  0.00000000000E+00  0.54384819683E+03  0.54384819683E+03  0.00000000000E+00 0. -1.
         21   -1    0    0  501  502 -0.00000000000E+00 -0.00000000000E+00 -0.33982755412E+03  0.33982755412E+03  0.00000000000E+00 0. -1.
         25    1    1    2    0    0  0.12298587515E+03 -0.14073886591E+03  0.65639353437E+02  0.23423594639E+03  0.12500000000E+03 0.  0.
         25    1    1    2    0    0  0.13053956545E+03  0.16953744164E+03  0.24260930003E+03  0.34679647450E+03  0.12500000000E+03 0.  0.
         25    1    1    2    0    0 -0.25352544060E+03 -0.28798575728E+02 -0.10422801076E+03  0.30264333005E+03  0.12500000000E+03 0.  0.
</event>
<event>
 5    0  0.5626800E-005  0.3269502E+03  0.7546771E-02  0.1072494E+00
         21   -1    0    0  502  501  0.00000000000E+00  0.00000000000E+00  0.27247725118E+02  0.27247725118E+02  0.00000000000E+00 0. -1.
         21   -1    0    0  501  502 -0.00000000000E+00 -0.00000000000E+00 -0.39231313590E+04  0.39231313590E+04  0.00000000000E+00 0. -1.
         25    1    1    2    0    0 -0.61260531602E+02 -0.16007805045E+02 -0.61403049485E+03  0.62981548978E+03  0.12500000000E+03 0.  0.
         25    1    1    2    0    0  0.48999634671E+02  0.20971362106E+03 -0.22189292246E+04  0.22328575124E+04  0.12500000000E+03 0.  0.
         25    1    1    2    0    0  0.12260896931E+02 -0.19370581601E+03 -0.10629239145E+04  0.10877060820E+04  0.12500000000E+03 0.  0.
</event>
<event>
 5    0  0.5626800E-005  0.2928682E+03  0.7546771E-02  0.1088861E+00
         21   -1    0    0  502  501  0.00000000000E+00  0.00000000000E+00  0.32928126554E+03  0.32928126554E+03  0.00000000000E+00 0. -1.
         21   -1    0    0  501  502 -0.00000000000E+00 -0.00000000000E+00 -0.26048178432E+03  0.26048178432E+03  0.00000000000E+00 0. -1.
         25    1    1    2    0    0 -0.50270221404E+02 -0.15932249001E+03  0.17761790242E+02  0.20940685800E+03  0.12500000000E+03 0.  0.
         25    1    1    2    0    0 -0.62857578178E+02  0.63621473835E+02  0.96176117029E+02  0.18131081753E+03  0.12500000000E+03 0.  0.
         25    1    1    2    0    0  0.11312779958E+03  0.95701016179E+02 -0.45138426044E+02  0.19904537433E+03  0.12500000000E+03 0.  0.
</event>
<event>
 5    0  0.5626800E-005  0.2698336E+03  0.7546771E-02  0.1101375E+00
         21   -1    0    0  502  501  0.00000000000E+00  0.00000000000E+00  0.35155737903E+03  0.35155737903E+03  0.00000000000E+00 0.  1.
         21   -1    0    0  501  502 -0.00000000000E+00 -0.00000000000E+00 -0.20710748158E+03  0.20710748158E+03  0.00000000000E+00 0.  1.
         25    1    1    2    0    0  0.14434021862E+02 -0.16160756051E+03  0.48116787715E+02  0.21039384464E+03  0.12500000000E+03 0.  0.
         25    1    1    2    0    0 -0.16467854876E+02  0.46036271371E+02  0.11532648398E+03  0.17696250008E+03  0.12500000000E+03 0.  0.
         25    1    1    2    0    0  0.20338330138E+01  0.11557128914E+03 -0.18993374254E+02  0.17130851589E+03  0.12500000000E+03 0.  0.
</event>
<event>
 5    0  0.5626800E-005  0.2359409E+03  0.7546771E-02  0.1122527E+00
         21   -1    0    0  502  501  0.00000000000E+00  0.00000000000E+00  0.60742104953E+03  0.60742104953E+03  0.00000000000E+00 0. -1.
         21   -1    0    0  501  502 -0.00000000000E+00 -0.00000000000E+00 -0.91646686145E+02  0.91646686145E+02  0.00000000000E+00 0. -1.
         25    1    1    2    0    0 -0.20435477623E+02 -0.68660181058E+02  0.68191943836E+02  0.15939564113E+03  0.12500000000E+03 0.  0.
         25    1    1    2    0    0 -0.58249202368E+02  0.32550768770E+02  0.15545829703E+03  0.21034448945E+03  0.12500000000E+03 0.  0.
         25    1    1    2    0    0  0.78684679991E+02  0.36109412288E+02  0.29212412251E+03  0.32932760509E+03  0.12500000000E+03 0.  0.
</event>
<event>
 5    0  0.5626800E-005  0.2877746E+03  0.7546771E-02  0.1091517E+00
         21   -1    0    0  502  501  0.00000000000E+00  0.00000000000E+00  0.69353625094E+03  0.69353625094E+03  0.00000000000E+00 0. -1.
         21   -1    0    0  501  502 -0.00000000000E+00 -0.00000000000E+00 -0.11940862699E+03  0.11940862699E+03  0.00000000000E+00 0. -1.
         25    1    1    2    0    0  0.16866156464E+02 -0.12214454647E+03  0.29505606353E+03  0.34334652771E+03  0.12500000000E+03 0.  0.
         25    1    1    2    0    0  0.10659695280E+03  0.11375675994E+03  0.12445959368E+03  0.23541176954E+03  0.12500000000E+03 0.  0.
         25    1    1    2    0    0 -0.12346310927E+03  0.83877865354E+01  0.15461196674E+03  0.23418658068E+03  0.12500000000E+03 0.  0.
</event>
<event>
 5    0  0.5626800E-005  0.3985593E+03  0.7546771E-02  0.1044280E+00
         21   -1    0    0  502  501  0.00000000000E+00  0.00000000000E+00  0.22254092503E+03  0.22254092503E+03  0.00000000000E+00 0.  1.
         21   -1    0    0  501  502 -0.00000000000E+00 -0.00000000000E+00 -0.71379902844E+03  0.71379902844E+03  0.00000000000E+00 0.  1.
         25    1    1    2    0    0  0.12713385146E+03  0.11139387863E+03  0.62611711564E+01  0.21032311962E+03  0.12500000000E+03 0.  0.
         25    1    1    2    0    0 -0.78384731945E+02  0.43542301440E+02  0.32955647403E+02  0.15732505494E+03  0.12500000000E+03 0.  0.
         25    1    1    2    0    0 -0.48749119513E+02 -0.15493618007E+03 -0.53047492198E+03  0.56869177891E+03  0.12500000000E+03 0.  0.
</event>
<event>
 5    0  0.5626800E-005  0.3135840E+03  0.7546771E-02  0.1078641E+00
         21   -1    0    0  502  501  0.00000000000E+00  0.00000000000E+00  0.21374822760E+03  0.21374822760E+03  0.00000000000E+00 0.  1.
         21   -1    0    0  501  502 -0.00000000000E+00 -0.00000000000E+00 -0.46005023221E+03  0.46005023221E+03  0.00000000000E+00 0.  1.
         25    1    1    2    0    0  0.41691105843E+02 -0.41108470723E+02 -0.11558630836E+03  0.18003680000E+03  0.12500000000E+03 0.  0.
         25    1    1    2    0    0  0.11232047099E+03  0.58020893330E+02  0.87696817452E+02  0.19823734274E+03  0.12500000000E+03 0.  0.
         25    1    1    2    0    0 -0.15401157683E+03 -0.16912422607E+02 -0.21841251370E+03  0.29552431707E+03  0.12500000000E+03 0.  0.
</event>
<event>
 5    0  0.5626800E-005  0.2545890E+03  0.7546771E-02  0.1110439E+00
         21   -1    0    0  502  501  0.00000000000E+00  0.00000000000E+00  0.67174970324E+03  0.67174970324E+03  0.00000000000E+00 0.  1.
         21   -1    0    0  501  502 -0.00000000000E+00 -0.00000000000E+00 -0.96487698786E+02  0.96487698786E+02  0.00000000000E+00 0.  1.
         25    1    1    2    0    0  0.12926688277E+03 -0.15578134479E+02  0.18876392741E+03  0.26116934266E+03  0.12500000000E+03 0.  0.
         25    1    1    2    0    0  0.15026426416E+02 -0.25316955109E+02  0.19575813970E+03  0.23412174390E+03  0.12500000000E+03 0.  0.
         25    1    1    2    0    0 -0.14429330919E+03  0.40895089589E+02  0.19073993735E+03  0.27294631547E+03  0.12500000000E+03 0.  0.
</event>
<event>
 5    0  0.5626800E-005  0.5798777E+03  0.7546771E-02  0.9948056E-01
         21   -1    0    0  502  501  0.00000000000E+00  0.00000000000E+00  0.40117715319E+03  0.40117715319E+03  0.00000000000E+00 0.  1.
         21   -1    0    0  501  502 -0.00000000000E+00 -0.00000000000E+00 -0.83817858323E+03  0.83817858323E+03  0.00000000000E+00 0.  1.
         25    1    1    2    0    0  0.14968710162E+03  0.68670453072E+02 -0.20644760682E+03  0.29217712757E+03  0.12500000000E+03 0.  0.
         25    1    1    2    0    0 -0.30189260285E+02 -0.35815790489E+03 -0.41480500817E+03  0.56291799676E+03  0.12500000000E+03 0.  0.
         25    1    1    2    0    0 -0.11949784133E+03  0.28948745182E+03  0.18425118495E+03  0.38426061208E+03  0.12500000000E+03 0.  0.
</event>
<event>
 5    0  0.5626800E-005  0.6768589E+03  0.7546771E-02  0.9757646E-01
         21   -1    0    0  502  501  0.00000000000E+00  0.00000000000E+00  0.46324418869E+03  0.46324418869E+03  0.00000000000E+00 0.  1.
         21   -1    0    0  501  502 -0.00000000000E+00 -0.00000000000E+00 -0.98897720400E+03  0.98897720400E+03  0.00000000000E+00 0.  1.
         25    1    1    2    0    0 -0.12526986964E+03 -0.13153440272E+03  0.98345800271E+02  0.24143474433E+03  0.12500000000E+03 0.  0.
         25    1    1    2    0    0 -0.32753823375E+03 -0.24940069720E+03 -0.30130801031E+03  0.52525567052E+03  0.12500000000E+03 0.  0.
         25    1    1    2    0    0  0.45280810339E+03  0.38093509992E+03 -0.32277080527E+03  0.68553097785E+03  0.12500000000E+03 0.  0.
</event>
<event>
 5    0  0.5626800E-005  0.2601079E+03  0.7546771E-02  0.1107078E+00
         21   -1    0    0  502  501  0.00000000000E+00  0.00000000000E+00  0.46938778777E+03  0.46938778777E+03  0.00000000000E+00 0.  1.
         21   -1    0    0  501  502 -0.00000000000E+00 -0.00000000000E+00 -0.14413698553E+03  0.14413698553E+03  0.00000000000E+00 0.  1.
         25    1    1    2    0    0  0.69601117246E+01  0.50116391597E+02  0.11394432108E+02  0.13533266030E+03  0.12500000000E+03 0.  0.
         25    1    1    2    0    0 -0.29721470063E+02 -0.45027273890E+02  0.32318682767E+03  0.35069295225E+03  0.12500000000E+03 0.  0.
         25    1    1    2    0    0  0.22761358339E+02 -0.50891177064E+01 -0.93304575478E+01  0.12749916074E+03  0.12500000000E+03 0.  0.
</event>
<event>
 5    0  0.5626800E-005  0.3463721E+03  0.7546771E-02  0.1064114E+00
         21   -1    0    0  502  501  0.00000000000E+00  0.00000000000E+00  0.32615485221E+03  0.32615485221E+03  0.00000000000E+00 0. -1.
         21   -1    0    0  501  502 -0.00000000000E+00 -0.00000000000E+00 -0.36784257476E+03  0.36784257476E+03  0.00000000000E+00 0. -1.
         25    1    1    2    0    0  0.83990224095E+02 -0.37733395327E+02 -0.12184093123E+03  0.19735343774E+03  0.12500000000E+03 0.  0.
         25    1    1    2    0    0 -0.21358416823E+03 -0.47519372111E+02 -0.52363795429E+02  0.25737764999E+03  0.12500000000E+03 0.  0.
         25    1    1    2    0    0  0.12959394413E+03  0.85252767438E+02  0.13251700411E+03  0.23926633923E+03  0.12500000000E+03 0.  0.
</event>
<event>
 5    0  0.5626800E-005  0.3540747E+03  0.7546771E-02  0.1060955E+00
         21   -1    0    0  502  501  0.00000000000E+00  0.00000000000E+00  0.40867739104E+03  0.40867739104E+03  0.00000000000E+00 0.  1.
         21   -1    0    0  501  502 -0.00000000000E+00 -0.00000000000E+00 -0.30676743102E+03  0.30676743102E+03  0.00000000000E+00 0.  1.
         25    1    1    2    0    0  0.16908547851E+03  0.14857958427E+03 -0.21563495748E+02  0.25837139210E+03  0.12500000000E+03 0.  0.
         25    1    1    2    0    0  0.47665093642E+02 -0.11712493643E+03  0.35793404376E+01  0.17784269331E+03  0.12500000000E+03 0.  0.
         25    1    1    2    0    0 -0.21675057216E+03 -0.31454647841E+02  0.11989411533E+03  0.27923073665E+03  0.12500000000E+03 0.  0.
</event>
<event>
 5    0  0.5626800E-005  0.3846227E+03  0.7546771E-02  0.1049238E+00
         21   -1    0    0  502  501  0.00000000000E+00  0.00000000000E+00  0.77988996237E+03  0.77988996237E+03  0.00000000000E+00 0.  1.
         21   -1    0    0  501  502 -0.00000000000E+00 -0.00000000000E+00 -0.18968653598E+03  0.18968653598E+03  0.00000000000E+00 0.  1.
         25    1    1    2    0    0  0.31468566555E+02 -0.39130427469E+02  0.17082579533E+03  0.21754979518E+03  0.12500000000E+03 0.  0.
         25    1    1    2    0    0 -0.26040722906E+03  0.16676739160E+03  0.21256573655E+03  0.39551546139E+03  0.12500000000E+03 0.  0.
         25    1    1    2    0    0  0.22893866250E+03 -0.12763696413E+03  0.20681189451E+03  0.35651124178E+03  0.12500000000E+03 0.  0.
</event>
<event>
 5    0  0.5626800E-005  0.2317128E+03  0.7546771E-02  0.1125440E+00
         21   -1    0    0  502  501  0.00000000000E+00  0.00000000000E+00  0.27277979911E+02  0.27277979911E+02  0.00000000000E+00 0. -1.
         21   -1    0    0  501  502 -0.00000000000E+00 -0.00000000000E+00 -0.19682843708E+04  0.19682843708E+04  0.00000000000E+00 0. -1.
         25    1    1    2    0    0  0.63097615680E+02 -0.21007575348E+01 -0.48591359702E+03  0.50569036580E+03  0.12500000000E+03 0.  0.
         25    1    1    2    0    0  0.11236965961E+02 -0.37078532046E+02 -0.33426792898E+03  0.35897233220E+03  0.12500000000E+03 0.  0.
         25    1    1    2    0    0 -0.74334581641E+02  0.39179289581E+02 -0.11208248649E+04  0.11308996527E+04  0.12500000000E+03 0.  0.
</event>
<event>
 5    0  0.5626800E-005  0.2410543E+03  0.7546771E-02  0.1119092E+00
         21   -1    0    0  502  501  0.00000000000E+00  0.00000000000E+00  0.21663798092E+03  0.21663798092E+03  0.00000000000E+00 0.  1.
         21   -1    0    0  501  502 -0.00000000000E+00 -0.00000000000E+00 -0.26822243877E+03  0.26822243877E+03  0.00000000000E+00 0.  1.
         25    1    1    2    0    0 -0.54968632106E+02  0.63638826813E+02 -0.75358534337E+02  0.16844987234E+03  0.12500000000E+03 0.  0.
         25    1    1    2    0    0 -0.22354505151E+02 -0.93171271827E+02  0.47768160342E+02  0.16458252318E+03  0.12500000000E+03 0.  0.
         25    1    1    2    0    0  0.77323137256E+02  0.29532445014E+02 -0.23994083854E+02  0.15182802417E+03  0.12500000000E+03 0.  0.
</event>
<event>
 5    0  0.5626800E-005  0.2941294E+03  0.7546771E-02  0.1088213E+00
         21   -1    0    0  502  501  0.00000000000E+00  0.00000000000E+00  0.16234474130E+04  0.16234474130E+04  0.00000000000E+00 0.  1.
         21   -1    0    0  501  502 -0.00000000000E+00 -0.00000000000E+00 -0.53289145131E+02  0.53289145131E+02  0.00000000000E+00 0.  1.
         25    1    1    2    0    0 -0.19360291292E+02 -0.22510115327E+02  0.21402514227E+03  0.24962629608E+03  0.12500000000E+03 0.  0.
         25    1    1    2    0    0  0.15894113943E+03  0.68158571958E+02  0.99589825978E+03  0.10185019492E+04  0.12500000000E+03 0.  0.
         25    1    1    2    0    0 -0.13958084814E+03 -0.45648456632E+02  0.36023486580E+03  0.40860831281E+03  0.12500000000E+03 0.  0.
</event>
<event>
 5    0  0.5626800E-005  0.3125740E+03  0.7546771E-02  0.1079119E+00
         21   -1    0    0  502  501  0.00000000000E+00  0.00000000000E+00  0.85953134706E+02  0.85953134706E+02  0.00000000000E+00 0. -1.
         21   -1    0    0  501  502 -0.00000000000E+00 -0.00000000000E+00 -0.11366951766E+04  0.11366951766E+04  0.00000000000E+00 0. -1.
         25    1    1    2    0    0  0.21812323693E+03 -0.47490293299E+02 -0.42851949251E+03  0.49908619487E+03  0.12500000000E+03 0.  0.
         25    1    1    2    0    0 -0.45272433761E+02 -0.31441938496E+02 -0.29451830745E+03  0.32466016414E+03  0.12500000000E+03 0.  0.
         25    1    1    2    0    0 -0.17285080317E+03  0.78932231795E+02 -0.32770424197E+03  0.39890195234E+03  0.12500000000E+03 0.  0.
</event>
<event>
 5    0  0.5626800E-005  0.3034444E+03  0.7546771E-02  0.1083531E+00
         21   -1    0    0  502  501  0.00000000000E+00  0.00000000000E+00  0.37627888170E+03  0.37627888170E+03  0.00000000000E+00 0. -1.
         21   -1    0    0  501  502 -0.00000000000E+00 -0.00000000000E+00 -0.24470806468E+03  0.24470806468E+03  0.00000000000E+00 0. -1.
         25    1    1    2    0    0  0.38683053514E+02  0.20717274718E+02  0.76265334962E+02  0.15286263578E+03  0.12500000000E+03 0.  0.
         25    1    1    2    0    0  0.57388094960E+02  0.14298901073E+03 -0.67775256245E+02  0.20966100255E+03  0.12500000000E+03 0.  0.
         25    1    1    2    0    0 -0.96071148474E+02 -0.16370628544E+03  0.12308073831E+03  0.25846330805E+03  0.12500000000E+03 0.  0.
</event>
<event>
 5    0  0.5626800E-005  0.3205220E+03  0.7546771E-02  0.1075409E+00
         21   -1    0    0  502  501  0.00000000000E+00  0.00000000000E+00  0.59736444351E+02  0.59736444351E+02  0.00000000000E+00 0.  1.
         21   -1    0    0  501  502 -0.00000000000E+00 -0.00000000000E+00 -0.17197936642E+04  0.17197936642E+04  0.00000000000E+00 0.  1.
         25    1    1    2    0    0  0.47326611217E+02 -0.17286890920E+02 -0.41404290700E+03  0.43542527897E+03  0.12500000000E+03 0.  0.
         25    1    1    2    0    0  0.65773850512E+02  0.18254794810E+03 -0.87026418916E+03  0.90035254857E+03  0.12500000000E+03 0.  0.
         25    1    1    2    0    0 -0.11310046173E+03 -0.16526105718E+03 -0.37575012373E+03  0.44375228106E+03  0.12500000000E+03 0.  0.
</event>
<event>
 5    0  0.5626800E-005  0.2220305E+03  0.7546771E-02  0.1132378E+00
         21   -1    0    0  502  501  0.00000000000E+00  0.00000000000E+00  0.10698563977E+03  0.10698563977E+03  0.00000000000E+00 0. -1.
         21   -1    0    0  501  502 -0.00000000000E+00 -0.00000000000E+00 -0.46078655071E+03  0.46078655071E+03  0.00000000000E+00 0. -1.
         25    1    1    2    0    0  0.41367581067E+01  0.10811422482E+01 -0.81008587483E+02  0.14901567999E+03  0.12500000000E+03 0.  0.
         25    1    1    2    0    0  0.69256938974E+02 -0.45175100111E+02 -0.20198365483E+03  0.25151483075E+03  0.12500000000E+03 0.  0.
         25    1    1    2    0    0 -0.73393697081E+02  0.44093957863E+02 -0.70808668628E+02  0.16724167975E+03  0.12500000000E+03 0.  0.
</event>
<event>
 5    0  0.5626800E-005  0.2737295E+03  0.7546771E-02  0.1099164E+00
         21   -1    0    0  502  501  0.00000000000E+00  0.00000000000E+00  0.66879131087E+03  0.66879131087E+03  0.00000000000E+00 0.  1.
         21   -1    0    0  501  502 -0.00000000000E+00 -0.00000000000E+00 -0.11203471262E+03  0.11203471262E+03  0.00000000000E+00 0.  1.
         25    1    1    2    0    0 -0.10790672391E+03 -0.73254941786E+01  0.25911480142E+03  0.30734834349E+03  0.12500000000E+03 0.  0.
         25    1    1    2    0    0  0.14138444638E+03  0.80942734513E+01  0.28706695421E+03  0.34363864035E+03  0.12500000000E+03 0.  0.
         25    1    1    2    0    0 -0.33477722472E+02 -0.76877927266E+00  0.10574842627E+02  0.12983903966E+03  0.12500000000E+03 0.  0.
</event>
