<event>
 6    0  0.6851428E+002  0.1160284E+03  0.7546771E-02  0.1249797E+00
          1   -1    0    0  505    0 -0.00000000000E+00  0.00000000000E+00  0.20033860429E+03  0.20033860429E+03  0.00000000000E+00 0.  1.
         21   -1    0    0  503  502  0.00000000000E+00 -0.00000000000E+00 -0.12801948817E+04  0.12801948817E+04  0.00000000000E+00 0.  1.
         21    1    1    2  503  501  0.36647784015E+02 -0.27656930281E+02 -0.50900575917E+02  0.68548045155E+02  0.00000000000E+00 0.  1.
         21    1    1    2  504  502 -0.65660532136E+02  0.12716897484E+03 -0.99355912978E+03  0.10038142249E+04  0.00000000000E+00 0.  1.
         21    1    1    2  505  504 -0.21086566514E+02 -0.12994274672E+03 -0.19662121869E+03  0.23662135227E+03  0.00000000000E+00 0.  1.
          1    1    1    2  501    0  0.50099314634E+02  0.30430702163E+02  0.16122464695E+03  0.17154986373E+03  0.00000000000E+00 0.  1.
<scales pt_clust_3="45.91259" pt_clust_4="14000.00000" pt_clust_5="116.02841" pt_clust_6="58.68918"></scales>
<clustering>
<clus scale="   45.913">  2  3  1 -1</clus>
<clus scale="   58.689">  1  6  2 -1</clus>
<clus scale="  116.028">  1  5  2 -1</clus>
<clus scale="   45.913">  2  3  1 -1</clus>
</clustering>
</event>
<event>
 6    0  0.6851428E+002  0.1695021E+03  0.7546771E-02  0.1178368E+00
          2   -1    0    0  504    0 -0.00000000000E+00  0.00000000000E+00  0.22055746856E+04  0.22055746856E+04  0.00000000000E+00 0. -1.
         21   -1    0    0  505  502  0.00000000000E+00 -0.00000000000E+00 -0.46009240053E+02  0.46009240053E+02  0.00000000000E+00 0. -1.
         21    1    1    2  503  501 -0.80125573644E+02 -0.95684861573E+02  0.11790086253E+03  0.17168667296E+03  0.00000000000E+00 0. -1.
         21    1    1    2  504  502  0.49716679818E+02  0.73282554295E+01  0.93858068618E+02  0.10646496431E+03  0.00000000000E+00 0.  1.
         21    1    1    2  505  503 -0.56813897707E+01 -0.63384631653E+02  0.96672213289E+02  0.11573852661E+03  0.00000000000E+00 0. -1.
          2    1    1    2  501    0  0.36090283596E+02  0.15174123780E+03  0.18511343011E+04  0.18576937618E+04  0.00000000000E+00 0. -1.
<scales pt_clust_3="44.62708" pt_clust_4="50.25387" pt_clust_5="44.62708" pt_clust_6="157.56036"></scales>
<clustering>
<clus scale="   44.627">  3  5 -1 -1</clus>
<clus scale="   50.254">  2  4  1 -1</clus>
<clus scale="  157.560">  1  6  2 -1</clus>
<clus scale="   50.254">  2  3  1 -1</clus>
</clustering>
</event>
<event>
 6    0  0.6851428E+002  0.1100589E+03  0.7546771E-02  0.1260461E+00
          2   -1    0    0  505    0 -0.00000000000E+00  0.00000000000E+00  0.21523778389E+04  0.21523778389E+04  0.00000000000E+00 0.  1.
         21   -1    0    0  501  502  0.00000000000E+00 -0.00000000000E+00 -0.14571180018E+03  0.14571180018E+03  0.00000000000E+00 0. -1.
         21    1    1    2  503  502  0.11255618515E+03 -0.17626248690E+02 -0.89692484565E+02  0.14499765945E+03  0.00000000000E+00 0. -1.
         21    1    1    2  504  503 -0.93114975355E+02  0.22188929807E+02  0.82208320094E+02  0.12617826728E+03  0.00000000000E+00 0. -1.
         21    1    1    2  505  504 -0.36725674503E+02 -0.37483718935E+02  0.10482639405E+03  0.11722788594E+03  0.00000000000E+00 0. -1.
          2    1    1    2  501    0  0.17284464712E+02  0.32921037817E+02  0.19093238091E+04  0.19096858264E+04  0.00000000000E+00 0.  1.
<scales pt_clust_3="110.05891" pt_clust_4="14000.00000" pt_clust_5="36.52573" pt_clust_6="37.18262"></scales>
<clustering>
<clus scale="   37.183">  1  6  2 -1</clus>
<clus scale="   36.526">  1  5  2 -1</clus>
<clus scale="  110.059">  2  3  1 -1</clus>
<clus scale="  110.059">  2  3  1 -1</clus>
</clustering>
</event>
<event>
 6    0  0.6851428E+002  0.7721477E+02  0.7546771E-02  0.1337147E+00
         21   -1    0    0  503  502  0.00000000000E+00  0.00000000000E+00  0.63921779437E+02  0.63921779437E+02  0.00000000000E+00 0. -1.
          2   -1    0    0  505    0 -0.00000000000E+00 -0.00000000000E+00 -0.18789457923E+04  0.18789457923E+04  0.00000000000E+00 0. -1.
         21    1    1    2  503  501 -0.27572464745E+02 -0.40976342897E+02 -0.10655957012E+03  0.11744889729E+03  0.00000000000E+00 0. -1.
         21    1    1    2  504  502 -0.34628639534E+02  0.80978654008E+02 -0.21850226762E+02  0.90742038166E+02  0.00000000000E+00 0. -1.
         21    1    1    2  505  504  0.94571629519E+02 -0.35605554326E+01 -0.70958947148E+02  0.11828627497E+03  0.00000000000E+00 0. -1.
          2    1    1    2  501    0 -0.32370525241E+02 -0.36441755679E+02 -0.16156552689E+04  0.16163903614E+04  0.00000000000E+00 0. -1.
<scales pt_clust_3="70.02232" pt_clust_4="77.21477" pt_clust_5="14000.00000" pt_clust_6="48.74272"></scales>
<clustering>
<clus scale="   48.743">  2  6  1 -1</clus>
<clus scale="   70.022">  2  3  1 -1</clus>
<clus scale="   77.215">  1  4  2 -1</clus>
<clus scale="   77.215">  1  3  2 -1</clus>
</clustering>
</event>
<event>
 6    0  0.6851428E+002  0.1532875E+03  0.7546771E-02  0.1196491E+00
          2   -1    0    0  504    0 -0.00000000000E+00  0.00000000000E+00  0.15653425328E+04  0.15653425328E+04  0.00000000000E+00 0. -1.
         21   -1    0    0  503  502  0.00000000000E+00 -0.00000000000E+00 -0.13920346812E+03  0.13920346812E+03  0.00000000000E+00 0. -1.
         21    1    1    2  503  505  0.30161912827E+02 -0.18202122797E+02 -0.59487222751E+02  0.69136010373E+02  0.00000000000E+00 0. -1.
         21    1    1    2  504  502 -0.73741381968E+02 -0.81607831673E+02  0.16080851923E+03  0.19482558729E+03  0.00000000000E+00 0. -1.
         21    1    1    2  505  501  0.78441179430E+01 -0.67253515358E+02 -0.30699150540E+02  0.74343818560E+02  0.00000000000E+00 0. -1.
          2    1    1    2  501    0  0.35735351198E+02  0.16706346983E+03  0.13555169188E+04  0.13662405847E+04  0.00000000000E+00 0. -1.
<scales pt_clust_3="35.22866" pt_clust_4="14000.00000" pt_clust_5="85.11041" pt_clust_6="153.28753"></scales>
<clustering>
<clus scale="   35.229">  2  3  1 -1</clus>
<clus scale="   85.110">  2  5  1 -1</clus>
<clus scale="  153.288">  1  6  2 -1</clus>
<clus scale="   35.229">  2  3  1 -1</clus>
</clustering>
</event>
<event>
 6    0  0.6851428E+002  0.1439097E+03  0.7546771E-02  0.1208163E+00
         21   -1    0    0  501  502  0.00000000000E+00  0.00000000000E+00  0.21272045883E+03  0.21272045883E+03  0.00000000000E+00 0. -1.
          2   -1    0    0  503    0 -0.00000000000E+00 -0.00000000000E+00 -0.35182689267E+03  0.35182689267E+03  0.00000000000E+00 0. -1.
         21    1    1    2  503  504  0.43581613776E+02  0.63315347817E+02  0.40496333049E+02  0.86880051329E+02  0.00000000000E+00 0. -1.
         21    1    1    2  504  505 -0.39755642886E+01  0.46708563548E+02  0.44476044639E+02  0.64618987665E+02  0.00000000000E+00 0. -1.
         21    1    1    2  505  502 -0.37336174955E+02  0.29896954916E+02  0.71495855358E+02  0.86020202318E+02  0.00000000000E+00 0. -1.
          2    1    1    2  501    0 -0.22698745326E+01 -0.13992086628E+03 -0.29557466689E+03  0.32702811019E+03  0.00000000000E+00 0. -1.
<scales pt_clust_3="35.42542" pt_clust_4="35.42542" pt_clust_5="47.83114" pt_clust_6="136.57321"></scales>
<clustering>
<clus scale="   35.425">  3  4 -1 -1</clus>
<clus scale="   47.831">  1  5  2 -1</clus>
<clus scale="  136.573">  2  6  1 -1</clus>
<clus scale="   47.831">  1  3  2 -1</clus>
</clustering>
</event>
<event>
 6    0  0.6851428E+002  0.8870470E+02  0.7546771E-02  0.1306019E+00
         21   -1    0    0  504  502  0.00000000000E+00  0.00000000000E+00  0.87159955606E+02  0.87159955606E+02  0.00000000000E+00 0. -1.
          1   -1    0    0  502    0 -0.00000000000E+00 -0.00000000000E+00 -0.24127021977E+04  0.24127021977E+04  0.00000000000E+00 0. -1.
         21    1    1    2  503  505 -0.74503225468E+02 -0.77449786927E+02 -0.24746216370E+03  0.26979014541E+03  0.00000000000E+00 0. -1.
         21    1    1    2  504  503  0.88885482557E+01  0.88450764910E+02  0.43934578047E+02  0.99160431884E+02  0.00000000000E+00 0. -1.
         21    1    1    2  505  501  0.35514556002E+02 -0.54501487733E+02 -0.25562199360E+03  0.26376940585E+03  0.00000000000E+00 0. -1.
          1    1    1    2  501    0  0.30100121211E+02  0.43500509750E+02 -0.18663926629E+04  0.18671421702E+04  0.00000000000E+00 0. -1.
<scales pt_clust_3="88.70470" pt_clust_4="14000.00000" pt_clust_5="60.21915" pt_clust_6="52.89907"></scales>
<clustering>
<clus scale="   52.899">  2  6  1 -1</clus>
<clus scale="   60.219">  2  5  1 -1</clus>
<clus scale="   88.705">  2  3  1 -1</clus>
<clus scale="   88.705">  1  3  2 -1</clus>
</clustering>
</event>
<event>
 6    0  0.6851428E+002  0.1210212E+03  0.7546771E-02  0.1241422E+00
         21   -1    0    0  505  502  0.00000000000E+00  0.00000000000E+00  0.19594091235E+03  0.19594091235E+03  0.00000000000E+00 0. -1.
         -2   -1    0    0    0  501 -0.00000000000E+00 -0.00000000000E+00 -0.31697699224E+03  0.31697699224E+03  0.00000000000E+00 0. -1.
         21    1    1    2  503  504  0.35450623456E+02 -0.12886383170E+03 -0.68150312810E+02  0.15002366134E+03  0.00000000000E+00 0. -1.
         21    1    1    2  504  502 -0.17101430169E+01 -0.40103353859E+02  0.21489694634E+02  0.45530325667E+02  0.00000000000E+00 0. -1.
         21    1    1    2  505  501  0.26601763612E+02  0.14287492222E+03  0.68068284462E+02  0.16048111595E+03  0.00000000000E+00 0. -1.
         -2    1    1    2    0  503 -0.60342244051E+02  0.26092263338E+02 -0.14244374618E+03  0.15688280163E+03  0.00000000000E+00 0. -1.
<scales pt_clust_3="121.02121" pt_clust_4="40.13980" pt_clust_5="14000.00000" pt_clust_6="65.12551"></scales>
<clustering>
<clus scale="   40.140">  1  4  2 -1</clus>
<clus scale="   65.126">  2  6  1 -1</clus>
<clus scale="  121.021">  2  3  1 -1</clus>
<clus scale="   40.140">  1  3  2 -1</clus>
</clustering>
</event>
<event>
 6    0  0.6851428E+002  0.5255621E+03  0.7546771E-02  0.1007314E+00
         21   -1    0    0  501  502  0.00000000000E+00  0.00000000000E+00  0.13498022973E+04  0.13498022973E+04  0.00000000000E+00 0.  1.
         -3   -1    0    0    0  501 -0.00000000000E+00 -0.00000000000E+00 -0.40433172397E+03  0.40433172397E+03  0.00000000000E+00 0. -1.
         21    1    1    2  503  502 -0.10490080208E+03  0.16015203678E+03  0.39719344100E+03  0.44092571113E+03  0.00000000000E+00 0. -1.
         21    1    1    2  504  505  0.69479683362E+02  0.20605590378E+03  0.44734307608E+03  0.49739550621E+03  0.00000000000E+00 0. -1.
         21    1    1    2  505  503 -0.20150195090E+02  0.11404669555E+03  0.27783408684E+03  0.30100574569E+03  0.00000000000E+00 0.  1.
         -3    1    1    2    0  504  0.55571313805E+02 -0.48025463611E+03 -0.17690003058E+03  0.51480705826E+03  0.00000000000E+00 0. -1.
<scales pt_clust_3="160.71374" pt_clust_4="160.71374" pt_clust_5="49.05158" pt_clust_6="483.45908"></scales>
<clustering>
<clus scale="   49.052">  3  5 -1 -1</clus>
<clus scale="  160.714">  3  4 -1 -1</clus>
<clus scale="  483.459">  2  6  1 -1</clus>
<clus scale="  525.562">  1  3  2 -1</clus>
</clustering>
</event>
<event>
 6    0  0.6851428E+002  0.3932457E+03  0.7546771E-02  0.1046144E+00
          2   -1    0    0  502    0 -0.00000000000E+00  0.00000000000E+00  0.88111808557E+03  0.88111808557E+03  0.00000000000E+00 0. -1.
         21   -1    0    0  505  502  0.00000000000E+00 -0.00000000000E+00 -0.56366642557E+03  0.56366642557E+03  0.00000000000E+00 0. -1.
         21    1    1    2  503  504  0.31097646824E+03 -0.46487608054E+01 -0.38163325312E+03  0.49231282196E+03  0.00000000000E+00 0. -1.
         21    1    1    2  504  501 -0.32805095854E+03 -0.29424343898E-01  0.35134738780E+03  0.48068952472E+03  0.00000000000E+00 0. -1.
         21    1    1    2  505  503  0.78482186886E+02  0.11670277559E+02 -0.33092570764E+02  0.85969571806E+02  0.00000000000E+00 0.  1.
          2    1    1    2  501    0 -0.61407696589E+02 -0.69920924093E+01  0.38083009609E+03  0.38581259265E+03  0.00000000000E+00 0. -1.
<scales pt_clust_3="52.21232" pt_clust_4="379.41602" pt_clust_5="52.21232" pt_clust_6="61.80449"></scales>
<clustering>
<clus scale="   52.212">  3  5 -1 -1</clus>
<clus scale="   61.804">  1  6  2 -1</clus>
<clus scale="  379.416">  1  4  2 -1</clus>
<clus scale="  393.246">  2  3  1 -1</clus>
</clustering>
</event>
<event>
 6    0  0.6851428E+002  0.1821086E+03  0.7546771E-02  0.1165778E+00
         21   -1    0    0  505  502  0.00000000000E+00  0.00000000000E+00  0.18390688732E+02  0.18390688732E+02  0.00000000000E+00 0. -1.
          1   -1    0    0  503    0 -0.00000000000E+00 -0.00000000000E+00 -0.38042044821E+04  0.38042044821E+04  0.00000000000E+00 0.  1.
         21    1    1    2  503  504 -0.48828723514E+02  0.66605386138E+02 -0.69140846505E+03  0.69632333527E+03  0.00000000000E+00 0. -1.
         21    1    1    2  504  502 -0.10798863953E+03  0.30548000109E+02 -0.62247589474E+03  0.63251163318E+03  0.00000000000E+00 0. -1.
         21    1    1    2  505  501  0.36183899087E+02  0.89137791307E+01 -0.33695054419E+02  0.50240289647E+02  0.00000000000E+00 0.  1.
          1    1    1    2  501    0  0.12063346396E+03 -0.10606716538E+03 -0.24382343791E+04  0.24435199127E+04  0.00000000000E+00 0.  1.
<scales pt_clust_3="67.18914" pt_clust_4="67.18914" pt_clust_5="37.26567" pt_clust_6="166.38429"></scales>
<clustering>
<clus scale="   37.266">  1  5  2 -1</clus>
<clus scale="   67.189">  3  4 -1 -1</clus>
<clus scale="  166.384">  2  6  1 -1</clus>
<clus scale="   37.266">  1  3  2 -1</clus>
</clustering>
</event>
<event>
 6    0  0.6851428E+002  0.7742973E+02  0.7546771E-02  0.1336508E+00
          2   -1    0    0  503    0 -0.00000000000E+00  0.00000000000E+00  0.23766430193E+04  0.23766430193E+04  0.00000000000E+00 0. -1.
         21   -1    0    0  504  502  0.00000000000E+00 -0.00000000000E+00 -0.62632004809E+03  0.62632004809E+03  0.00000000000E+00 0.  1.
         21    1    1    2  503  502  0.74399873879E+02  0.40342014274E+02 -0.45604480422E+03  0.46383152416E+03  0.00000000000E+00 0.  1.
         21    1    1    2  504  505  0.34727136655E+01 -0.35758987274E+02 -0.15178908520E+01  0.35959267286E+02  0.00000000000E+00 0.  1.
         21    1    1    2  505  501 -0.51233233843E+02 -0.66458853869E+02 -0.13519658840E+03  0.15912178048E+03  0.00000000000E+00 0.  1.
          2    1    1    2  501    0 -0.26639353701E+02  0.61875826870E+02  0.23430822547E+04  0.23440504955E+04  0.00000000000E+00 0. -1.
<scales pt_clust_3="14000.00000" pt_clust_4="35.92722" pt_clust_5="77.42973" pt_clust_6="67.33944"></scales>
<clustering>
<clus scale="   35.927">  2  4  1 -1</clus>
<clus scale="   67.339">  1  6  2 -1</clus>
<clus scale="   77.430">  1  5  2 -1</clus>
<clus scale="   35.927">  2  3  1 -1</clus>
</clustering>
</event>
<event>
 6    0  0.6851428E+002  0.1457547E+03  0.7546771E-02  0.1205789E+00
         21   -1    0    0  504  502  0.00000000000E+00  0.00000000000E+00  0.12541709303E+03  0.12541709303E+03  0.00000000000E+00 0.  1.
          2   -1    0    0  505    0 -0.00000000000E+00 -0.00000000000E+00 -0.12445432076E+04  0.12445432076E+04  0.00000000000E+00 0.  1.
         21    1    1    2  503  502 -0.82060582236E+02  0.42679761027E+02  0.27190329529E+02  0.96409621812E+02  0.00000000000E+00 0.  1.
         21    1    1    2  504  501  0.24368329917E+02 -0.29514385389E+02 -0.19530371807E+02  0.42969173494E+02  0.00000000000E+00 0.  1.
         21    1    1    2  505  503 -0.41482389631E+02  0.76363085681E+02  0.86310571281E+01  0.87330433706E+02  0.00000000000E+00 0. -1.
          2    1    1    2  501    0  0.99174641949E+02 -0.89528461318E+02 -0.11354171294E+04  0.11432510716E+04  0.00000000000E+00 0.  1.
<scales pt_clust_3="54.15617" pt_clust_4="38.27420" pt_clust_5="54.15617" pt_clust_6="134.91209"></scales>
<clustering>
<clus scale="   38.274">  1  4  2 -1</clus>
<clus scale="   54.156">  3  5 -1 -1</clus>
<clus scale="  134.912">  2  6  1 -1</clus>
<clus scale="   38.274">  1  3  2 -1</clus>
</clustering>
</event>
<event>
 6    0  0.6851428E+002  0.1112646E+03  0.7546771E-02  0.1258246E+00
          1   -1    0    0  503    0 -0.00000000000E+00  0.00000000000E+00  0.21306525012E+04  0.21306525012E+04  0.00000000000E+00 0. -1.
         21   -1    0    0  504  502  0.00000000000E+00 -0.00000000000E+00 -0.41527691544E+02  0.41527691544E+02  0.00000000000E+00 0. -1.
         21    1    1    2  503  502 -0.18029710291E+02 -0.49068903759E+02  0.94142977154E+02  0.10768346167E+03  0.00000000000E+00 0. -1.
         21    1    1    2  504  505 -0.31484122299E+02  0.33849055840E+02  0.17644441475E+02  0.49480651301E+02  0.00000000000E+00 0. -1.
         21    1    1    2  505  501 -0.53417900388E+02 -0.17946248539E+01  0.23484702804E+02  0.58379996797E+02  0.00000000000E+00 0. -1.
          1    1    1    2  501    0  0.10293173298E+03  0.17014472773E+02  0.19538526882E+04  0.19566360830E+04  0.00000000000E+00 0. -1.
<scales pt_clust_3="52.27646" pt_clust_4="38.41806" pt_clust_5="38.41806" pt_clust_6="103.31187"></scales>
<clustering>
<clus scale="   38.418">  4  5 -1 -1</clus>
<clus scale="   52.276">  2  3  1 -1</clus>
<clus scale="  103.312">  1  6  2 -1</clus>
<clus scale="   52.276">  2  3  1 -1</clus>
</clustering>
</event>
<event>
 6    0  0.6851428E+002  0.1084159E+03  0.7546771E-02  0.1263532E+00
         21   -1    0    0  503  502  0.00000000000E+00  0.00000000000E+00  0.20520454138E+04  0.20520454138E+04  0.00000000000E+00 0. -1.
         -3   -1    0    0    0  501 -0.00000000000E+00 -0.00000000000E+00 -0.21959419489E+02  0.21959419489E+02  0.00000000000E+00 0.  1.
         21    1    1    2  503  504 -0.40638648370E+02  0.53530142389E+02  0.39042253495E+03  0.39616503087E+03  0.00000000000E+00 0. -1.
         21    1    1    2  504  501 -0.10301908791E+03 -0.50116895991E+01  0.64272736059E+03  0.65095046629E+03  0.00000000000E+00 0. -1.
         21    1    1    2  505  502  0.39157922157E+02 -0.63880923412E+01  0.79223438659E+03  0.79322725236E+03  0.00000000000E+00 0. -1.
         -3    1    1    2    0  505  0.10449981412E+03 -0.42130360449E+02  0.20470171215E+03  0.23366208374E+03  0.00000000000E+00 0.  1.
<scales pt_clust_3="58.84688" pt_clust_4="108.41594" pt_clust_5="39.67557" pt_clust_6="14000.00000"></scales>
<clustering>
<clus scale="   39.676">  1  5  2 -1</clus>
<clus scale="   58.847">  1  3  2 -1</clus>
<clus scale="  108.416">  1  4  2 -1</clus>
<clus scale="   39.676">  1  3  2 -1</clus>
</clustering>
</event>
<event>
 6    0  0.6851428E+002  0.1103864E+03  0.7546771E-02  0.1259856E+00
         -1   -1    0    0    0  501 -0.00000000000E+00  0.00000000000E+00  0.16460953136E+04  0.16460953136E+04  0.00000000000E+00 0.  1.
         21   -1    0    0  503  502  0.00000000000E+00 -0.00000000000E+00 -0.57920502768E+02  0.57920502768E+02  0.00000000000E+00 0. -1.
         21    1    1    2  503  505  0.22128642266E+02 -0.26345714815E+02 -0.34367240676E+02  0.48630039372E+02  0.00000000000E+00 0. -1.
         21    1    1    2  504  502  0.28286212717E+02  0.34529602210E+02  0.59025434054E+02  0.74002737273E+02  0.00000000000E+00 0. -1.
         21    1    1    2  505  501 -0.60328975053E+02  0.98932402554E+02  0.10712883176E+04  0.10775369437E+04  0.00000000000E+00 0. -1.
         -1    1    1    2    0  504  0.99141200707E+01 -0.10711628995E+03  0.49222829987E+03  0.50384609608E+03  0.00000000000E+00 0.  1.
<scales pt_clust_3="34.40601" pt_clust_4="44.49451" pt_clust_5="110.38645" pt_clust_6="14000.00000"></scales>
<clustering>
<clus scale="   34.406">  2  3  1 -1</clus>
<clus scale="   44.495">  2  4  1 -1</clus>
<clus scale="  110.386">  1  5  2 -1</clus>
<clus scale="   34.406">  2  3  1 -1</clus>
</clustering>
</event>
<event>
 6    0  0.6851428E+002  0.9369222E+02  0.7546771E-02  0.1294149E+00
          1   -1    0    0  504    0 -0.00000000000E+00  0.00000000000E+00  0.24503104554E+04  0.24503104554E+04  0.00000000000E+00 0.  1.
         21   -1    0    0  505  502  0.00000000000E+00 -0.00000000000E+00 -0.53070434418E+02  0.53070434418E+02  0.00000000000E+00 0.  1.
         21    1    1    2  503  501 -0.95973349662E+02  0.68170141240E+02  0.22186594086E+03  0.25116239312E+03  0.00000000000E+00 0.  1.
         21    1    1    2  504  502  0.57364445841E+01 -0.32366392009E+02  0.93666188518E+02  0.99266535145E+02  0.00000000000E+00 0. -1.
         21    1    1    2  505  503  0.56024184417E+02 -0.37258672926E+02 -0.35851008972E+01  0.67377821991E+02  0.00000000000E+00 0.  1.
          1    1    1    2  501    0  0.34212720661E+02  0.14549236960E+01  0.20852929925E+04  0.20855741396E+04  0.00000000000E+00 0.  1.
<scales pt_clust_3="14000.00000" pt_clust_4="32.87081" pt_clust_5="93.69222" pt_clust_6="34.25594"></scales>
<clustering>
<clus scale="   32.871">  2  4  1 -1</clus>
<clus scale="   34.256">  1  6  2 -1</clus>
<clus scale="   93.692">  2  5  1 -1</clus>
<clus scale="   32.871">  2  3  1 -1</clus>
</clustering>
</event>
<event>
 6    0  0.6851428E+002  0.4562856E+03  0.7546771E-02  0.1025864E+00
          1   -1    0    0  502    0 -0.00000000000E+00  0.00000000000E+00  0.94309427535E+03  0.94309427535E+03  0.00000000000E+00 0.  1.
         21   -1    0    0  503  502  0.00000000000E+00 -0.00000000000E+00 -0.63248583627E+03  0.63248583627E+03  0.00000000000E+00 0.  1.
         21    1    1    2  503  505  0.20264815547E+02  0.25132201410E+02 -0.66901739469E+02  0.74284137209E+02  0.00000000000E+00 0. -1.
         21    1    1    2  504  501 -0.14878666436E+03  0.17972565250E+03 -0.21868582282E+03  0.31978472565E+03  0.00000000000E+00 0.  1.
         21    1    1    2  505  504 -0.16093046537E+03  0.14684188797E+03 -0.17929183322E+03  0.28214662182E+03  0.00000000000E+00 0.  1.
          1    1    1    2  501    0  0.28945231418E+03 -0.35169974188E+03  0.77548783459E+03  0.89936462695E+03  0.00000000000E+00 0.  1.
<scales pt_clust_3="32.28452" pt_clust_4="35.51657" pt_clust_5="35.51657" pt_clust_6="454.78843"></scales>
<clustering>
<clus scale="   32.285">  2  3  1 -1</clus>
<clus scale="   35.517">  4  5 -1 -1</clus>
<clus scale="  454.788">  1  6  2 -1</clus>
<clus scale="   32.285">  2  3  1 -1</clus>
</clustering>
</event>
<event>
 6    0  0.6851428E+002  0.2350649E+03  0.7546771E-02  0.1123125E+00
          4   -1    0    0  503    0 -0.00000000000E+00  0.00000000000E+00  0.98791078231E+02  0.98791078231E+02  0.00000000000E+00 0. -1.
         21   -1    0    0  501  502  0.00000000000E+00 -0.00000000000E+00 -0.18877498842E+04  0.18877498842E+04  0.00000000000E+00 0. -1.
         21    1    1    2  503  505 -0.11714120302E+03  0.20458741792E+02 -0.32388491692E+03  0.34502472515E+03  0.00000000000E+00 0.  1.
         21    1    1    2  504  502  0.24351083532E+03  0.12723038616E+02 -0.13260337644E+04  0.13482673870E+04  0.00000000000E+00 0. -1.
         21    1    1    2  505  504 -0.80167536390E+02 -0.34240410347E+02 -0.19916957086E+03  0.21741149359E+03  0.00000000000E+00 0.  1.
          4    1    1    2  501    0 -0.46202095910E+02  0.10586299395E+01  0.60129446198E+02  0.75837356652E+02  0.00000000000E+00 0. -1.
<scales pt_clust_3="51.85907" pt_clust_4="227.21726" pt_clust_5="51.85907" pt_clust_6="46.21422"></scales>
<clustering>
<clus scale="   46.214">  1  6  2 -1</clus>
<clus scale="   51.859">  3  5 -1 -1</clus>
<clus scale="  227.217">  2  4  1 -1</clus>
<clus scale="  227.217">  2  3  1 -1</clus>
</clustering>
</event>
<event>
 6    0  0.6851428E+002  0.7784192E+02  0.7546771E-02  0.1335290E+00
         21   -1    0    0  504  502  0.00000000000E+00  0.00000000000E+00  0.53180226873E+03  0.53180226873E+03  0.00000000000E+00 0. -1.
         -3   -1    0    0    0  501 -0.00000000000E+00 -0.00000000000E+00 -0.31825300359E+02  0.31825300359E+02  0.00000000000E+00 0. -1.
         21    1    1    2  503  502 -0.25892811032E+02 -0.23393197402E+02  0.12115385392E+03  0.12607908497E+03  0.00000000000E+00 0. -1.
         21    1    1    2  504  505 -0.20377225775E+02  0.49670993524E+02  0.10165077728E+03  0.11495790295E+03  0.00000000000E+00 0. -1.
         21    1    1    2  505  501  0.49450605673E+02  0.60495172261E+02  0.12627073004E+03  0.14849015298E+03  0.00000000000E+00 0. -1.
         -3    1    1    2    0  503 -0.31805688655E+01 -0.86772968383E+02  0.15090160713E+03  0.17410042819E+03  0.00000000000E+00 0. -1.
<scales pt_clust_3="34.89526" pt_clust_4="51.29858" pt_clust_5="77.84192" pt_clust_6="14000.00000"></scales>
<clustering>
<clus scale="   34.895">  1  3  2 -1</clus>
<clus scale="   51.299">  1  4  2 -1</clus>
<clus scale="   77.842">  2  5  1 -1</clus>
<clus scale="   34.895">  1  3  2 -1</clus>
</clustering>
</event>
<event>
 6    0  0.6851428E+002  0.2403414E+03  0.7546771E-02  0.1119566E+00
          2   -1    0    0  503    0 -0.00000000000E+00  0.00000000000E+00  0.10747506797E+04  0.10747506797E+04  0.00000000000E+00 0.  1.
         21   -1    0    0  504  502  0.00000000000E+00 -0.00000000000E+00 -0.65345662949E+03  0.65345662949E+03  0.00000000000E+00 0. -1.
         21    1    1    2  503  505  0.19931975915E+03  0.21140952805E+03  0.15651354764E+03  0.33002855260E+03  0.00000000000E+00 0.  1.
         21    1    1    2  504  501 -0.11410087323E+03 -0.37827354937E+02 -0.11494286216E+03  0.16631830812E+03  0.00000000000E+00 0. -1.
         21    1    1    2  505  502 -0.49019851922E+02 -0.15017975023E+03 -0.41081747008E+03  0.44014531349E+03  0.00000000000E+00 0. -1.
          2    1    1    2  501    0 -0.36199033999E+02 -0.23402422883E+02  0.79054083476E+03  0.79171513493E+03  0.00000000000E+00 0.  1.
<scales pt_clust_3="240.34142" pt_clust_4="123.99066" pt_clust_5="14000.00000" pt_clust_6="43.10503"></scales>
<clustering>
<clus scale="   43.105">  1  6  2 -1</clus>
<clus scale="  123.991">  2  4  1 -1</clus>
<clus scale="  240.341">  1  3  2 -1</clus>
<clus scale="  123.991">  2  3  1 -1</clus>
</clustering>
</event>
<event>
 6    0  0.6851428E+002  0.2220842E+03  0.7546771E-02  0.1132339E+00
         21   -1    0    0  505  502  0.00000000000E+00  0.00000000000E+00  0.12236983355E+04  0.12236983355E+04  0.00000000000E+00 0.  1.
         -1   -1    0    0    0  501 -0.00000000000E+00 -0.00000000000E+00 -0.22855413421E+03  0.22855413421E+03  0.00000000000E+00 0.  1.
         21    1    1    2  503  502  0.41465282601E+02  0.11262539288E+03  0.94244167187E+03  0.95005271099E+03  0.00000000000E+00 0.  1.
         21    1    1    2  504  501  0.15509721611E+02 -0.26366716806E+03 -0.32060023970E+02  0.26606159459E+03  0.00000000000E+00 0.  1.
         21    1    1    2  505  504 -0.21619749870E+02 -0.26049798450E+02  0.35281178512E+02  0.48895471579E+02  0.00000000000E+00 0. -1.
         -1    1    1    2    0  503 -0.35355254342E+02  0.17709157363E+03  0.49481374906E+02  0.18724269257E+03  0.00000000000E+00 0.  1.
<scales pt_clust_3="94.88953" pt_clust_4="14000.00000" pt_clust_5="33.85270" pt_clust_6="222.08416"></scales>
<clustering>
<clus scale="   33.853">  1  5  2 -1</clus>
<clus scale="   94.890">  1  3  2 -1</clus>
<clus scale="  222.084">  1  6  2 -1</clus>
<clus scale="   33.853">  1  3  2 -1</clus>
</clustering>
</event>
<event>
 6    0  0.6851428E+002  0.1255932E+03  0.7546771E-02  0.1234145E+00
          2   -1    0    0  505    0 -0.00000000000E+00  0.00000000000E+00  0.40409657803E+04  0.40409657803E+04  0.00000000000E+00 0. -1.
         21   -1    0    0  503  502  0.00000000000E+00 -0.00000000000E+00 -0.95535712208E+03  0.95535712208E+03  0.00000000000E+00 0. -1.
         21    1    1    2  503  501 -0.78927952870E+01  0.13980496419E+03 -0.74500986401E+02  0.15861311801E+03  0.00000000000E+00 0. -1.
         21    1    1    2  504  502 -0.24879625483E+02 -0.18671155597E+02 -0.83490418693E+03  0.83548345834E+03  0.00000000000E+00 0. -1.
         21    1    1    2  505  504  0.28339994263E+02 -0.19793010432E+02  0.98449133749E+02  0.10434150887E+03  0.00000000000E+00 0. -1.
          2    1    1    2  501    0  0.44324265069E+01 -0.10134079816E+03  0.38965646978E+04  0.38978848172E+04  0.00000000000E+00 0. -1.
<scales pt_clust_3="125.59316" pt_clust_4="31.10640" pt_clust_5="34.33725" pt_clust_6="14000.00000"></scales>
<clustering>
<clus scale="   31.106">  2  4  1 -1</clus>
<clus scale="   34.337">  1  5  2 -1</clus>
<clus scale="  125.593">  2  3  1 -1</clus>
<clus scale="   31.106">  2  3  1 -1</clus>
</clustering>
</event>
<event>
 6    0  0.1235676E+003  0.8632492E+02  0.7546771E-02  0.1312004E+00
          2   -1    0    0  505    0 -0.00000000000E+00  0.00000000000E+00  0.10782858395E+04  0.10782858395E+04  0.00000000000E+00 0. -1.
         21   -1    0    0  504  502  0.00000000000E+00 -0.00000000000E+00 -0.49179698439E+03  0.49179698439E+03  0.00000000000E+00 0.  1.
         21    1    1    2  503  502 -0.61252838269E+02 -0.61721008332E+02 -0.40349868464E+03  0.41276213679E+03  0.00000000000E+00 0.  1.
         21    1    1    2  504  501 -0.26632084341E+02  0.32855287861E+02 -0.51606477017E+02  0.66723056936E+02  0.00000000000E+00 0.  1.
         21    1    1    2  505  503  0.72664549169E+02 -0.23802659108E+02  0.37780548843E+02  0.85288177126E+02  0.00000000000E+00 0. -1.
          2    1    1    2  501    0  0.15220373441E+02  0.52668379579E+02  0.10038134679E+04  0.10053094530E+04  0.00000000000E+00 0. -1.
<scales pt_clust_3="14000.00000" pt_clust_4="42.29347" pt_clust_5="86.32492" pt_clust_6="54.86534"></scales>
<clustering>
<clus scale="   42.293">  2  4  1 -1</clus>
<clus scale="   54.865">  1  6  2 -1</clus>
<clus scale="   86.325">  1  5  2 -1</clus>
<clus scale="   42.293">  2  3  1 -1</clus>
</clustering>
</event>
<event>
 6    0  0.6851428E+002  0.1203256E+03  0.7546771E-02  0.1242561E+00
         21   -1    0    0  501  502  0.00000000000E+00  0.00000000000E+00  0.63058517896E+03  0.63058517896E+03  0.00000000000E+00 0.  1.
          3   -1    0    0  503    0 -0.00000000000E+00 -0.00000000000E+00 -0.30458668905E+03  0.30458668905E+03  0.00000000000E+00 0.  1.
         21    1    1    2  503  504  0.34603846983E+01  0.48900318942E+02  0.40563796213E+01  0.49190137939E+02  0.00000000000E+00 0.  1.
         21    1    1    2  504  505  0.43282834231E+02 -0.12087002373E+03  0.52759426849E+03  0.54299049579E+03  0.00000000000E+00 0.  1.
         21    1    1    2  505  502 -0.47983485150E+02 -0.24235528978E+01  0.54356764122E+02  0.72546166416E+02  0.00000000000E+00 0.  1.
          3    1    1    2  501    0  0.12402662206E+01  0.74393257685E+02 -0.26000892232E+03  0.27044506787E+03  0.00000000000E+00 0.  1.
<scales pt_clust_3="48.80150" pt_clust_4="14000.00000" pt_clust_5="48.04465" pt_clust_6="120.32563"></scales>
<clustering>
<clus scale="   48.045">  1  5  2 -1</clus>
<clus scale="   48.801">  2  3  1 -1</clus>
<clus scale="  120.326">  2  6  1 -1</clus>
<clus scale="   48.045">  1  3  2 -1</clus>
</clustering>
</event>
<event>
 6    0  0.6851428E+002  0.1310783E+03  0.7546771E-02  0.1225864E+00
         21   -1    0    0  504  502  0.00000000000E+00  0.00000000000E+00  0.33729295435E+03  0.33729295435E+03  0.00000000000E+00 0.  1.
          2   -1    0    0  505    0 -0.00000000000E+00 -0.00000000000E+00 -0.37926176222E+03  0.37926176222E+03  0.00000000000E+00 0.  1.
         21    1    1    2  503  502  0.15158479370E+03  0.97565471883E+00  0.12028216919E+03  0.19351150304E+03  0.00000000000E+00 0.  1.
         21    1    1    2  504  501 -0.11088689818E+03  0.56148744718E+02  0.14575421336E+03  0.19155384735E+03  0.00000000000E+00 0.  1.
         21    1    1    2  505  503 -0.35382558497E+02 -0.16700139841E+02 -0.26990252324E+02  0.47532029591E+02  0.00000000000E+00 0.  1.
          2    1    1    2  501    0 -0.53153370271E+01 -0.40424259596E+02 -0.28101493809E+03  0.28395733659E+03  0.00000000000E+00 0.  1.
<scales pt_clust_3="14000.00000" pt_clust_4="131.07827" pt_clust_5="39.12570" pt_clust_6="64.28591"></scales>
<clustering>
<clus scale="   39.126">  2  5  1 -1</clus>
<clus scale="   64.286">  2  6  1 -1</clus>
<clus scale="  131.078">  1  4  2 -1</clus>
<clus scale="  131.078">  1  3  2 -1</clus>
</clustering>
</event>
<event>
 6    0  0.6851428E+002  0.8000450E+02  0.7546771E-02  0.1329039E+00
          4   -1    0    0  505    0 -0.00000000000E+00  0.00000000000E+00  0.26075850610E+03  0.26075850610E+03  0.00000000000E+00 0.  1.
         21   -1    0    0  503  502  0.00000000000E+00 -0.00000000000E+00 -0.90223200959E+02  0.90223200959E+02  0.00000000000E+00 0. -1.
         21    1    1    2  503  501  0.97390002816E+02  0.31755985622E+02  0.28292871091E+02  0.10627201808E+03  0.00000000000E+00 0. -1.
         21    1    1    2  504  502 -0.81409144024E+01 -0.67751551054E+02  0.24313593224E+02  0.72440996494E+02  0.00000000000E+00 0.  1.
         21    1    1    2  505  504 -0.28615623539E+02  0.50850764342E+02  0.33549437464E+02  0.67306900826E+02  0.00000000000E+00 0. -1.
          4    1    1    2  501    0 -0.60633464875E+02 -0.14855198909E+02  0.84379403368E+02  0.10496179167E+03  0.00000000000E+00 0.  1.
<scales pt_clust_3="14000.00000" pt_clust_4="57.95673" pt_clust_5="58.34941" pt_clust_6="80.00450"></scales>
<clustering>
<clus scale="   58.349">  1  5  2 -1</clus>
<clus scale="   57.957">  2  4  1 -1</clus>
<clus scale="   80.004">  1  6  2 -1</clus>
<clus scale="   57.957">  2  3  1 -1</clus>
</clustering>
</event>
<event>
 6    0  0.6851428E+002  0.8683016E+02  0.7546771E-02  0.1310715E+00
         -1   -1    0    0    0  501 -0.00000000000E+00  0.00000000000E+00  0.20239493235E+03  0.20239493235E+03  0.00000000000E+00 0. -1.
         21   -1    0    0  504  502  0.00000000000E+00 -0.00000000000E+00 -0.63442394104E+03  0.63442394104E+03  0.00000000000E+00 0. -1.
         21    1    1    2  503  501 -0.29331806817E+02  0.53354678528E+02 -0.51145620981E+02  0.79516986597E+02  0.00000000000E+00 0. -1.
         21    1    1    2  504  503 -0.39228302728E+02 -0.18866338029E+02 -0.13413960434E+03  0.14102564269E+03  0.00000000000E+00 0. -1.
         21    1    1    2  505  502  0.15334695823E+03 -0.41426832036E+02 -0.40586524343E+03  0.43584179221E+03  0.00000000000E+00 0. -1.
         -1    1    1    2    0  505 -0.84786848688E+02  0.69384915363E+01  0.15912146006E+03  0.18043445189E+03  0.00000000000E+00 0. -1.
<scales pt_clust_3="61.46313" pt_clust_4="43.52928" pt_clust_5="14000.00000" pt_clust_6="86.83016"></scales>
<clustering>
<clus scale="   43.529">  2  4  1 -1</clus>
<clus scale="   61.463">  2  3  1 -1</clus>
<clus scale="   86.830">  1  6  2 -1</clus>
<clus scale="   43.529">  2  3  1 -1</clus>
</clustering>
</event>
<event>
 6    0  0.6851428E+002  0.1114553E+03  0.7546771E-02  0.1257898E+00
         21   -1    0    0  503  502  0.00000000000E+00  0.00000000000E+00  0.26091526462E+02  0.26091526462E+02  0.00000000000E+00 0.  1.
          1   -1    0    0  505    0 -0.00000000000E+00 -0.00000000000E+00 -0.16545673465E+04  0.16545673465E+04  0.00000000000E+00 0.  1.
         21    1    1    2  503  501 -0.40823061906E+02 -0.77681193968E+02 -0.30088908674E+03  0.31342484394E+03  0.00000000000E+00 0.  1.
         21    1    1    2  504  502 -0.32317981062E+02  0.25493722498E+02 -0.78317255398E+02  0.88475840091E+02  0.00000000000E+00 0.  1.
         21    1    1    2  505  504  0.80694124162E+02  0.11300823358E+03 -0.33776088242E+03  0.36519147885E+03  0.00000000000E+00 0.  1.
          1    1    1    2  501    0 -0.75530811945E+01 -0.60820762106E+02 -0.91150859552E+03  0.91356671012E+03  0.00000000000E+00 0.  1.
<scales pt_clust_3="111.45533" pt_clust_4="41.16287" pt_clust_5="14000.00000" pt_clust_6="60.26868"></scales>
<clustering>
<clus scale="   41.163">  1  4  2 -1</clus>
<clus scale="   60.269">  2  6  1 -1</clus>
<clus scale="  111.455">  1  3  2 -1</clus>
<clus scale="   41.163">  1  3  2 -1</clus>
</clustering>
</event>
<event>
 6    0  0.6851428E+002  0.2297371E+03  0.7546771E-02  0.1126825E+00
         21   -1    0    0  503  502  0.00000000000E+00  0.00000000000E+00  0.62952384134E+03  0.62952384134E+03  0.00000000000E+00 0. -1.
          2   -1    0    0  504    0 -0.00000000000E+00 -0.00000000000E+00 -0.54625352590E+03  0.54625352590E+03  0.00000000000E+00 0. -1.
         21    1    1    2  503  501  0.11847237065E+03  0.13888145573E+03 -0.15945988514E+03  0.24238650194E+03  0.00000000000E+00 0. -1.
         21    1    1    2  504  505 -0.58163873586E+02 -0.92500074161E+02  0.23404850200E+03  0.25829827951E+03  0.00000000000E+00 0. -1.
         21    1    1    2  505  502 -0.92843364996E+02 -0.82837806562E+02  0.32864966987E+03  0.35141513645E+03  0.00000000000E+00 0. -1.
          2    1    1    2  501    0  0.32534867931E+02  0.36456424990E+02 -0.31996797130E+03  0.32367744934E+03  0.00000000000E+00 0. -1.
<scales pt_clust_3="226.28404" pt_clust_4="37.18615" pt_clust_5="37.18615" pt_clust_6="48.86296"></scales>
<clustering>
<clus scale="   37.186">  4  5 -1 -1</clus>
<clus scale="   48.863">  2  6  1 -1</clus>
<clus scale="  226.284">  2  3  1 -1</clus>
<clus scale="  229.737">  1  3  2 -1</clus>
</clustering>
</event>
<event>
 6    0  0.6851428E+002  0.8800300E+02  0.7546771E-02  0.1307761E+00
         21   -1    0    0  501  502  0.00000000000E+00  0.00000000000E+00  0.23690354269E+03  0.23690354269E+03  0.00000000000E+00 0.  1.
         -4   -1    0    0    0  501 -0.00000000000E+00 -0.00000000000E+00 -0.75224509366E+03  0.75224509366E+03  0.00000000000E+00 0.  1.
         21    1    1    2  503  505 -0.19608944049E+02 -0.79515951164E+02  0.84399966678E+02  0.11760379055E+03  0.00000000000E+00 0.  1.
         21    1    1    2  504  503  0.18260896916E+02  0.10269339736E+03 -0.21077313869E+02  0.10641262791E+03  0.00000000000E+00 0. -1.
         21    1    1    2  505  502  0.37704476576E+02 -0.58245540536E+01  0.88698051822E+02  0.96555152016E+02  0.00000000000E+00 0.  1.
         -4    1    1    2    0  504 -0.36356429443E+02 -0.17352892145E+02 -0.66736225560E+03  0.66857706588E+03  0.00000000000E+00 0.  1.
<scales pt_clust_3="88.00300" pt_clust_4="14000.00000" pt_clust_5="38.15171" pt_clust_6="40.15280"></scales>
<clustering>
<clus scale="   38.152">  1  5  2 -1</clus>
<clus scale="   40.153">  2  6  1 -1</clus>
<clus scale="   88.003">  1  3  2 -1</clus>
<clus scale="   38.152">  1  3  2 -1</clus>
</clustering>
</event>
<event>
 6    0  0.6851428E+002  0.1471533E+03  0.7546771E-02  0.1204015E+00
          2   -1    0    0  503    0 -0.00000000000E+00  0.00000000000E+00  0.16665817276E+04  0.16665817276E+04  0.00000000000E+00 0.  1.
         21   -1    0    0  504  502  0.00000000000E+00 -0.00000000000E+00 -0.36990563215E+02  0.36990563215E+02  0.00000000000E+00 0.  1.
         21    1    1    2  503  505  0.25591551788E+02 -0.54225695143E+02  0.51593999763E+02  0.79103061560E+02  0.00000000000E+00 0.  1.
         21    1    1    2  504  501  0.42278038363E+02 -0.32822826388E+02  0.17158666377E+03  0.17974079572E+03  0.00000000000E+00 0.  1.
         21    1    1    2  505  502  0.38970198556E+02 -0.11664479484E+02  0.11525861205E+02  0.42279805269E+02  0.00000000000E+00 0.  1.
          2    1    1    2  501    0 -0.10683978871E+03  0.98713001015E+02  0.13948846396E+04  0.14024486282E+04  0.00000000000E+00 0.  1.
<scales pt_clust_3="38.98216" pt_clust_4="53.52355" pt_clust_5="38.98216" pt_clust_6="139.33467"></scales>
<clustering>
<clus scale="   38.982">  3  5 -1 -1</clus>
<clus scale="   53.524">  2  4  1 -1</clus>
<clus scale="  139.335">  1  6  2 -1</clus>
<clus scale="   53.524">  2  3  1 -1</clus>
</clustering>
</event>
<event>
 6    0  0.6851428E+002  0.1761889E+03  0.7546771E-02  0.1171543E+00
          1   -1    0    0  504    0 -0.00000000000E+00  0.00000000000E+00  0.11685218267E+04  0.11685218267E+04  0.00000000000E+00 0. -1.
         21   -1    0    0  505  502  0.00000000000E+00 -0.00000000000E+00 -0.18095493756E+03  0.18095493756E+03  0.00000000000E+00 0. -1.
         21    1    1    2  503  502 -0.29162169056E+02 -0.12118930683E+03  0.13573492674E+03  0.18428578494E+03  0.00000000000E+00 0. -1.
         21    1    1    2  504  503 -0.73513906238E+02 -0.32559572310E+01  0.17320576156E+03  0.18818908445E+03  0.00000000000E+00 0. -1.
         21    1    1    2  505  501  0.11257806180E+03  0.16615823380E+03 -0.80805814401E+02  0.21636071339E+03  0.00000000000E+00 0. -1.
          1    1    1    2  501    0 -0.99019865082E+01 -0.41712969741E+02  0.75943201527E+03  0.76064118150E+03  0.00000000000E+00 0. -1.
<scales pt_clust_3="176.18894" pt_clust_4="80.86247" pt_clust_5="14000.00000" pt_clust_6="42.87215"></scales>
<clustering>
<clus scale="   42.872">  1  6  2 -1</clus>
<clus scale="   80.862">  1  4  2 -1</clus>
<clus scale="  176.189">  1  3  2 -1</clus>
<clus scale="  176.189">  2  3  1 -1</clus>
</clustering>
</event>
<event>
 6    0  0.6851428E+002  0.1964351E+03  0.7546771E-02  0.1152782E+00
         21   -1    0    0  501  502  0.00000000000E+00  0.00000000000E+00  0.45922987738E+03  0.45922987738E+03  0.00000000000E+00 0.  1.
          2   -1    0    0  504    0 -0.00000000000E+00 -0.00000000000E+00 -0.15173872755E+04  0.15173872755E+04  0.00000000000E+00 0. -1.
         21    1    1    2  503  505 -0.17262598651E+02 -0.12370230025E+03  0.15096102529E+03  0.19593235454E+03  0.00000000000E+00 0.  1.
         21    1    1    2  504  503  0.20173899597E+02 -0.85929003776E+02  0.27180409446E+02  0.92355587663E+02  0.00000000000E+00 0. -1.
         21    1    1    2  505  502 -0.82882882483E+01  0.33923876307E+02  0.21934586814E+03  0.22210838565E+03  0.00000000000E+00 0.  1.
          2    1    1    2  501    0  0.53769873025E+01  0.17570742772E+03 -0.14556447010E+04  0.14662208251E+04  0.00000000000E+00 0. -1.
<scales pt_clust_3="76.16332" pt_clust_4="76.16332" pt_clust_5="34.92170" pt_clust_6="176.53599"></scales>
<clustering>
<clus scale="   34.922">  1  5  2 -1</clus>
<clus scale="   76.163">  3  4 -1 -1</clus>
<clus scale="  176.536">  2  6  1 -1</clus>
<clus scale="   34.922">  1  3  2 -1</clus>
</clustering>
</event>
<event>
 6    0  0.6851428E+002  0.1147802E+03  0.7546771E-02  0.1251965E+00
          2   -1    0    0  503    0 -0.00000000000E+00  0.00000000000E+00  0.14409960531E+04  0.14409960531E+04  0.00000000000E+00 0.  1.
         21   -1    0    0  504  502  0.00000000000E+00 -0.00000000000E+00 -0.16888422998E+02  0.16888422998E+02  0.00000000000E+00 0. -1.
         21    1    1    2  503  502 -0.62571677331E+02 -0.50411685615E+02  0.36156656834E+03  0.37038754865E+03  0.00000000000E+00 0. -1.
         21    1    1    2  504  505  0.75843361635E+02  0.23505483097E+02  0.15545137735E+03  0.17455616277E+03  0.00000000000E+00 0. -1.
         21    1    1    2  505  501  0.34088185099E+02  0.26111852024E+02  0.21582331636E+03  0.22005348683E+03  0.00000000000E+00 0. -1.
          2    1    1    2  501    0 -0.47359869402E+02  0.79435049362E+00  0.69126636803E+03  0.69288727784E+03  0.00000000000E+00 0.  1.
<scales pt_clust_3="99.24438" pt_clust_4="42.40462" pt_clust_5="42.40462" pt_clust_6="47.36653"></scales>
<clustering>
<clus scale="   42.405">  4  5 -1 -1</clus>
<clus scale="   47.367">  1  6  2 -1</clus>
<clus scale="   99.244">  1  3  2 -1</clus>
<clus scale="  114.780">  2  3  1 -1</clus>
</clustering>
</event>
<event>
 6    0  0.6851428E+002  0.1749698E+03  0.7546771E-02  0.1172762E+00
         21   -1    0    0  505  502  0.00000000000E+00  0.00000000000E+00  0.35275418589E+02  0.35275418589E+02  0.00000000000E+00 0.  1.
          2   -1    0    0  502    0 -0.00000000000E+00 -0.00000000000E+00 -0.21245828334E+04  0.21245828334E+04  0.00000000000E+00 0. -1.
         21    1    1    2  503  501  0.40901035218E+02 -0.11121326035E+03 -0.83721230721E+03  0.84555646252E+03  0.00000000000E+00 0.  1.
         21    1    1    2  504  503 -0.11979826678E+02  0.13402458491E+03 -0.55380989124E+03  0.56992236422E+03  0.00000000000E+00 0. -1.
         21    1    1    2  505  504 -0.10765416754E+01  0.40777659105E+02  0.18283048519E+01  0.40832819187E+02  0.00000000000E+00 0.  1.
          2    1    1    2  501    0 -0.27844666865E+02 -0.63588983666E+02 -0.70011352125E+03  0.70354660610E+03  0.00000000000E+00 0. -1.
<scales pt_clust_3="58.40406" pt_clust_4="158.08577" pt_clust_5="40.79187" pt_clust_6="58.40406"></scales>
<clustering>
<clus scale="   40.792">  1  5  2 -1</clus>
<clus scale="   58.404">  3  6 -1 -1</clus>
<clus scale="  158.086">  1  4  2 -1</clus>
<clus scale="   40.792">  1  3  2 -1</clus>
</clustering>
</event>
<event>
 6    0  0.6851428E+002  0.1094258E+03  0.7546771E-02  0.1261637E+00
         21   -1    0    0  504  502  0.00000000000E+00  0.00000000000E+00  0.10040893573E+03  0.10040893573E+03  0.00000000000E+00 0. -1.
          2   -1    0    0  503    0 -0.00000000000E+00 -0.00000000000E+00 -0.34134739339E+04  0.34134739339E+04  0.00000000000E+00 0. -1.
         21    1    1    2  503  502  0.87152566106E+02 -0.12472803082E+03 -0.51501883864E+03  0.53702612190E+03  0.00000000000E+00 0. -1.
         21    1    1    2  504  505 -0.40981767119E+02  0.63947978825E+01  0.31508016504E+02  0.52087942752E+02  0.00000000000E+00 0. -1.
         21    1    1    2  505  501 -0.18937603376E+02  0.84749308265E+02  0.77046842622E+01  0.87180503742E+02  0.00000000000E+00 0. -1.
          2    1    1    2  501    0 -0.27233195611E+02  0.33583924676E+02 -0.28372588603E+04  0.28375883012E+04  0.00000000000E+00 0. -1.
<scales pt_clust_3="109.42581" pt_clust_4="41.47769" pt_clust_5="14000.00000" pt_clust_6="43.32460"></scales>
<clustering>
<clus scale="   41.478">  1  4  2 -1</clus>
<clus scale="   43.325">  2  6  1 -1</clus>
<clus scale="  109.426">  2  3  1 -1</clus>
<clus scale="   41.478">  1  3  2 -1</clus>
</clustering>
</event>
<event>
 6    0  0.6851428E+002  0.1253361E+03  0.7546771E-02  0.1234545E+00
         21   -1    0    0  504  502  0.00000000000E+00  0.00000000000E+00  0.12609807067E+03  0.12609807067E+03  0.00000000000E+00 0. -1.
          2   -1    0    0  503    0 -0.00000000000E+00 -0.00000000000E+00 -0.76038641513E+03  0.76038641513E+03  0.00000000000E+00 0. -1.
         21    1    1    2  503  502 -0.27639580453E+02  0.64493698066E+02 -0.12114157965E+03  0.13999523498E+03  0.00000000000E+00 0.  1.
         21    1    1    2  504  505  0.45807215038E+01 -0.57474068371E+02  0.25750087787E+02  0.63145218074E+02  0.00000000000E+00 0. -1.
         21    1    1    2  505  501  0.50127142338E+02 -0.66028640151E+02  0.46032082798E+02  0.94823332392E+02  0.00000000000E+00 0. -1.
          2    1    1    2  501    0 -0.27068283390E+02  0.59009010457E+02 -0.58492893539E+03  0.58852070035E+03  0.00000000000E+00 0. -1.
<scales pt_clust_3="118.96901" pt_clust_4="32.89133" pt_clust_5="32.89133" pt_clust_6="64.92115"></scales>
<clustering>
<clus scale="   32.891">  4  5 -1 -1</clus>
<clus scale="   64.921">  2  6  1 -1</clus>
<clus scale="  118.969">  2  3  1 -1</clus>
<clus scale="  125.336">  1  3  2 -1</clus>
</clustering>
</event>
<event>
 6    0  0.6851428E+002  0.9415061E+02  0.7546771E-02  0.1293101E+00
         21   -1    0    0  505  502  0.00000000000E+00  0.00000000000E+00  0.32788523445E+03  0.32788523445E+03  0.00000000000E+00 0. -1.
          2   -1    0    0  504    0 -0.00000000000E+00 -0.00000000000E+00 -0.18166220884E+04  0.18166220884E+04  0.00000000000E+00 0. -1.
         21    1    1    2  503  502 -0.26045114920E+02 -0.54895161490E+02  0.20502763920E+03  0.21384143565E+03  0.00000000000E+00 0.  1.
         21    1    1    2  504  503 -0.63712435263E+02 -0.33357802752E+02  0.38235994769E+02  0.81449424231E+02  0.00000000000E+00 0. -1.
         21    1    1    2  505  501  0.19533621842E+02  0.24772117171E+02  0.53015733901E+02  0.61691881253E+02  0.00000000000E+00 0. -1.
          2    1    1    2  501    0  0.70223928341E+02  0.63480847072E+02 -0.17850162218E+04  0.17875245817E+04  0.00000000000E+00 0. -1.
<scales pt_clust_3="37.35047" pt_clust_4="94.15061" pt_clust_5="31.54711" pt_clust_6="14000.00000"></scales>
<clustering>
<clus scale="   31.547">  1  5  2 -1</clus>
<clus scale="   37.350">  1  3  2 -1</clus>
<clus scale="   94.151">  1  4  2 -1</clus>
<clus scale="   31.547">  1  3  2 -1</clus>
</clustering>
</event>
<event>
 6    0  0.6851428E+002  0.8382236E+02  0.7546771E-02  0.1318541E+00
         21   -1    0    0  505  502  0.00000000000E+00  0.00000000000E+00  0.85827354207E+03  0.85827354207E+03  0.00000000000E+00 0.  1.
          4   -1    0    0  504    0 -0.00000000000E+00 -0.00000000000E+00 -0.57688946392E+03  0.57688946392E+03  0.00000000000E+00 0. -1.
         21    1    1    2  503  501 -0.64418743657E+02  0.10608528499E+03 -0.10995576327E+03  0.16581354619E+03  0.00000000000E+00 0.  1.
         21    1    1    2  504  502  0.58247962623E+02  0.61594150671E+01  0.68066746508E+01  0.58966892096E+02  0.00000000000E+00 0.  1.
         21    1    1    2  505  503 -0.78042985904E+01 -0.34216534635E+02  0.79326192563E+03  0.79403788384E+03  0.00000000000E+00 0.  1.
          4    1    1    2  501    0  0.13975079624E+02 -0.78028165418E+02 -0.40872875887E+03  0.41634468386E+03  0.00000000000E+00 0. -1.
<scales pt_clust_3="14000.00000" pt_clust_4="55.43069" pt_clust_5="35.09527" pt_clust_6="83.82236"></scales>
<clustering>
<clus scale="   35.095">  1  5  2 -1</clus>
<clus scale="   55.431">  1  4  2 -1</clus>
<clus scale="   83.822">  2  6  1 -1</clus>
<clus scale="   35.095">  1  3  2 -1</clus>
</clustering>
</event>
<event>
 6    0  0.6851428E+002  0.1311846E+03  0.7546771E-02  0.1225709E+00
         -1   -1    0    0    0  501 -0.00000000000E+00  0.00000000000E+00  0.40566531558E+03  0.40566531558E+03  0.00000000000E+00 0. -1.
         21   -1    0    0  504  502  0.00000000000E+00 -0.00000000000E+00 -0.15170866484E+04  0.15170866484E+04  0.00000000000E+00 0.  1.
         21    1    1    2  503  502  0.61211936420E+01  0.13361956727E+03 -0.12049135951E+04  0.12123153177E+04  0.00000000000E+00 0.  1.
         21    1    1    2  504  501  0.45924188356E+02 -0.12021254648E+03 -0.23785808657E+03  0.27043771326E+03  0.00000000000E+00 0. -1.
         21    1    1    2  505  503 -0.67881965643E+02 -0.40186825957E+02 -0.24645714686E+02  0.82645952669E+02  0.00000000000E+00 0. -1.
         -1    1    1    2    0  505  0.15836583645E+02  0.26779805169E+02  0.35599606353E+03  0.35735298039E+03  0.00000000000E+00 0. -1.
<scales pt_clust_3="131.18460" pt_clust_4="14000.00000" pt_clust_5="63.36636" pt_clust_6="31.11198"></scales>
<clustering>
<clus scale="   31.112">  1  6  2 -1</clus>
<clus scale="   63.366">  1  5  2 -1</clus>
<clus scale="  131.185">  2  3  1 -1</clus>
<clus scale="  131.185">  2  3  1 -1</clus>
</clustering>
</event>
<event>
 6    0  0.6851428E+002  0.1902092E+03  0.7546771E-02  0.1158273E+00
         21   -1    0    0  503  502  0.00000000000E+00  0.00000000000E+00  0.12763502005E+04  0.12763502005E+04  0.00000000000E+00 0. -1.
         -3   -1    0    0    0  501 -0.00000000000E+00 -0.00000000000E+00 -0.21037931248E+03  0.21037931248E+03  0.00000000000E+00 0. -1.
         21    1    1    2  503  505  0.10684498045E+03  0.17074121883E+03  0.95696067171E+03  0.97792747219E+03  0.00000000000E+00 0. -1.
         21    1    1    2  504  501 -0.24639924549E+02 -0.46009303230E+02  0.98630492100E+01  0.53115549561E+02  0.00000000000E+00 0. -1.
         21    1    1    2  505  504 -0.11210203798E+03 -0.12201904237E+03  0.25107429565E+03  0.30082190007E+03  0.00000000000E+00 0. -1.
         -3    1    1    2    0  502  0.29896982082E+02 -0.27128732248E+01 -0.15192712854E+03  0.15486459119E+03  0.00000000000E+00 0. -1.
<scales pt_clust_3="14000.00000" pt_clust_4="48.88122" pt_clust_5="190.20915" pt_clust_6="30.01981"></scales>
<clustering>
<clus scale="   30.020">  2  6  1 -1</clus>
<clus scale="   48.881">  2  4  1 -1</clus>
<clus scale="  190.209">  2  5  1 -1</clus>
<clus scale="  190.209">  1  3  2 -1</clus>
</clustering>
</event>
<event>
 6    0  0.6851428E+002  0.8945610E+02  0.7546771E-02  0.1304174E+00
         21   -1    0    0  501  502  0.00000000000E+00  0.00000000000E+00  0.77884257902E+02  0.77884257902E+02  0.00000000000E+00 0. -1.
          2   -1    0    0  503    0 -0.00000000000E+00 -0.00000000000E+00 -0.38021662580E+03  0.38021662580E+03  0.00000000000E+00 0. -1.
         21    1    1    2  503  504  0.72446926914E+01  0.76851195283E+02 -0.33328133464E+02  0.84079464014E+02  0.00000000000E+00 0. -1.
         21    1    1    2  504  505  0.53744961586E+02  0.23692361658E+02 -0.85140617337E+02  0.10343487621E+03  0.00000000000E+00 0. -1.
         21    1    1    2  505  502 -0.58005289796E+02 -0.56631997611E+01  0.57239157335E+01  0.58561494919E+02  0.00000000000E+00 0. -1.
          2    1    1    2  501    0 -0.29843644816E+01 -0.94880357180E+02 -0.18958753283E+03  0.21202504855E+03  0.00000000000E+00 0. -1.
<scales pt_clust_3="89.45610" pt_clust_4="47.80358" pt_clust_5="58.28109" pt_clust_6="14000.00000"></scales>
<clustering>
<clus scale="   58.281">  1  5  2 -1</clus>
<clus scale="   47.804">  1  4  2 -1</clus>
<clus scale="   89.456">  1  3  2 -1</clus>
<clus scale="   58.281">  1  3  2 -1</clus>
</clustering>
</event>
<event>
 6    0  0.6851428E+002  0.7976584E+02  0.7546771E-02  0.1329717E+00
         21   -1    0    0  505  502  0.00000000000E+00  0.00000000000E+00  0.54077978622E+03  0.54077978622E+03  0.00000000000E+00 0. -1.
         -2   -1    0    0    0  501 -0.00000000000E+00 -0.00000000000E+00 -0.26631515022E+03  0.26631515022E+03  0.00000000000E+00 0. -1.
         21    1    1    2  503  502 -0.12359750058E+02  0.46395696617E+02  0.17600191316E+03  0.18243354275E+03  0.00000000000E+00 0. -1.
         21    1    1    2  504  501  0.14577253002E+03 -0.51733802607E+02  0.25151899833E+03  0.29527584283E+03  0.00000000000E+00 0. -1.
         21    1    1    2  505  504 -0.57761586999E+02  0.26617899106E+02  0.68996034228E+02  0.93836912910E+02  0.00000000000E+00 0. -1.
         -2    1    1    2    0  503 -0.75651192965E+02 -0.21279793117E+02 -0.22205230971E+03  0.23554863795E+03  0.00000000000E+00 0. -1.
<scales pt_clust_3="48.01379" pt_clust_4="79.76584" pt_clust_5="70.98945" pt_clust_6="14000.00000"></scales>
<clustering>
<clus scale="   48.014">  1  3  2 -1</clus>
<clus scale="   70.989">  1  5  2 -1</clus>
<clus scale="   79.766">  1  4  2 -1</clus>
<clus scale="   48.014">  1  3  2 -1</clus>
</clustering>
</event>
<event>
 6    0  0.6851428E+002  0.1432738E+03  0.7546771E-02  0.1208991E+00
         21   -1    0    0  505  502  0.00000000000E+00  0.00000000000E+00  0.17792122321E+04  0.17792122321E+04  0.00000000000E+00 0. -1.
         -1   -1    0    0    0  501 -0.00000000000E+00 -0.00000000000E+00 -0.33341558903E+02  0.33341558903E+02  0.00000000000E+00 0. -1.
         21    1    1    2  503  501 -0.37861575003E+02 -0.10045453264E+03  0.43898495173E+03  0.45192078934E+03  0.00000000000E+00 0.  1.
         21    1    1    2  504  503  0.64423170751E+02  0.50662475408E+02  0.51432542685E+03  0.52081443533E+03  0.00000000000E+00 0. -1.
         21    1    1    2  505  504  0.49186865276E+02  0.79564375706E+02  0.73304872374E+03  0.73899273946E+03  0.00000000000E+00 0.  1.
         -1    1    1    2    0  502 -0.75748461024E+02 -0.29772318473E+02  0.59511570850E+02  0.10082582685E+03  0.00000000000E+00 0. -1.
<scales pt_clust_3="138.64272" pt_clust_4="33.82166" pt_clust_5="33.82166" pt_clust_6="81.38931"></scales>
<clustering>
<clus scale="   33.822">  4  5 -1 -1</clus>
<clus scale="   81.389">  2  6  1 -1</clus>
<clus scale="  138.643">  2  3  1 -1</clus>
<clus scale="  143.274">  1  3  2 -1</clus>
</clustering>
</event>
<event>
 6    0  0.6851428E+002  0.1524123E+03  0.7546771E-02  0.1197540E+00
         -1   -1    0    0    0  501 -0.00000000000E+00  0.00000000000E+00  0.19690449794E+03  0.19690449794E+03  0.00000000000E+00 0. -1.
         21   -1    0    0  505  502  0.00000000000E+00 -0.00000000000E+00 -0.39355558588E+03  0.39355558588E+03  0.00000000000E+00 0.  1.
         21    1    1    2  503  502 -0.82155097126E+02 -0.11126694002E+03 -0.12653242453E+03  0.18745731883E+03  0.00000000000E+00 0. -1.
         21    1    1    2  504  501  0.19518254432E+02  0.80351345560E+02 -0.99004736191E+02  0.12899317338E+03  0.00000000000E+00 0.  1.
         21    1    1    2  505  504  0.46782823896E+02  0.66544738131E+02 -0.10599135707E+03  0.13360764408E+03  0.00000000000E+00 0.  1.
         -1    1    1    2    0  503  0.15854018798E+02 -0.35629143672E+02  0.13487742985E+03  0.14040194754E+03  0.00000000000E+00 0. -1.
<scales pt_clust_3="149.22468" pt_clust_4="30.75500" pt_clust_5="30.75500" pt_clust_6="38.99725"></scales>
<clustering>
<clus scale="   30.755">  4  5 -1 -1</clus>
<clus scale="   38.997">  1  6  2 -1</clus>
<clus scale="  149.225">  1  3  2 -1</clus>
<clus scale="  152.412">  2  3  1 -1</clus>
</clustering>
</event>
<event>
 6    0  0.6851428E+002  0.2250849E+03  0.7546771E-02  0.1130148E+00
          2   -1    0    0  505    0 -0.00000000000E+00  0.00000000000E+00  0.15596330086E+04  0.15596330086E+04  0.00000000000E+00 0.  1.
         21   -1    0    0  503  502  0.00000000000E+00 -0.00000000000E+00 -0.79494796216E+03  0.79494796216E+03  0.00000000000E+00 0. -1.
         21    1    1    2  503  501 -0.26850798329E+02  0.38277167658E+02 -0.64331067717E+03  0.64500754592E+03  0.00000000000E+00 0. -1.
         21    1    1    2  504  502  0.92748956593E+02 -0.94850532963E+02 -0.21888464062E+02  0.13445481550E+03  0.00000000000E+00 0.  1.
         21    1    1    2  505  504  0.85156410967E+02 -0.10392856325E+03  0.62306617612E+01  0.13450495059E+03  0.00000000000E+00 0.  1.
          2    1    1    2  501    0 -0.15105456923E+03  0.16050192855E+03  0.14236535259E+04  0.14406136587E+04  0.00000000000E+00 0.  1.
<scales pt_clust_3="46.75582" pt_clust_4="30.31449" pt_clust_5="30.31449" pt_clust_6="223.00777"></scales>
<clustering>
<clus scale="   30.314">  4  5 -1 -1</clus>
<clus scale="   46.756">  2  3  1 -1</clus>
<clus scale="  223.008">  1  6  2 -1</clus>
<clus scale="   46.756">  2  3  1 -1</clus>
</clustering>
</event>
<event>
 6    0  0.6851428E+002  0.1684066E+03  0.7546771E-02  0.1179520E+00
          4   -1    0    0  505    0 -0.00000000000E+00  0.00000000000E+00  0.37159135887E+03  0.37159135887E+03  0.00000000000E+00 0. -1.
         21   -1    0    0  504  502  0.00000000000E+00 -0.00000000000E+00 -0.35992433803E+03  0.35992433803E+03  0.00000000000E+00 0. -1.
         21    1    1    2  503  502  0.23018406876E+02 -0.18402166839E+03 -0.14110328883E+03  0.23303209996E+03  0.00000000000E+00 0. -1.
         21    1    1    2  504  501  0.49746211671E+02  0.87664220705E+02 -0.12079334024E+03  0.15732365434E+03  0.00000000000E+00 0. -1.
         21    1    1    2  505  503 -0.12718414429E+02 -0.33760235358E+02  0.45562281116E+01  0.36363041286E+02  0.00000000000E+00 0. -1.
          4    1    1    2  501    0 -0.60046204119E+02  0.13011768304E+03  0.26900742180E+03  0.30479690132E+03  0.00000000000E+00 0. -1.
<scales pt_clust_3="35.26667" pt_clust_4="100.79534" pt_clust_5="35.26667" pt_clust_6="148.21328"></scales>
<clustering>
<clus scale="   35.267">  3  5 -1 -1</clus>
<clus scale="  100.795">  2  4  1 -1</clus>
<clus scale="  148.213">  1  6  2 -1</clus>
<clus scale="  100.795">  2  3  1 -1</clus>
</clustering>
</event>
<event>
 6    0  0.6851428E+002  0.1301618E+03  0.7546771E-02  0.1227216E+00
          2   -1    0    0  504    0 -0.00000000000E+00  0.00000000000E+00  0.24544517607E+04  0.24544517607E+04  0.00000000000E+00 0. -1.
         21   -1    0    0  503  502  0.00000000000E+00 -0.00000000000E+00 -0.55499875849E+02  0.55499875849E+02  0.00000000000E+00 0. -1.
         21    1    1    2  503  501  0.25563113349E+02 -0.95178815175E+02  0.81764038306E+02  0.12805404165E+03  0.00000000000E+00 0. -1.
         21    1    1    2  504  505  0.14544057953E+02  0.15027128207E+03  0.39847893515E+03  0.42612022903E+03  0.00000000000E+00 0. -1.
         21    1    1    2  505  502 -0.82453632620E+02 -0.57269524705E+02  0.11951584826E+03  0.15608471411E+03  0.00000000000E+00 0. -1.
          2    1    1    2  501    0  0.42346461319E+02  0.21770578133E+01  0.17991930632E+04  0.17996926518E+04  0.00000000000E+00 0. -1.
<scales pt_clust_3="14000.00000" pt_clust_4="130.16185" pt_clust_5="92.93217" pt_clust_6="42.40239"></scales>
<clustering>
<clus scale="   42.402">  1  6  2 -1</clus>
<clus scale="   92.932">  2  5  1 -1</clus>
<clus scale="  130.162">  1  4  2 -1</clus>
<clus scale="   92.932">  2  3  1 -1</clus>
</clustering>
</event>
<event>
 6    0  0.6851428E+002  0.1484818E+03  0.7546771E-02  0.1202351E+00
          1   -1    0    0  502    0 -0.00000000000E+00  0.00000000000E+00  0.57849932874E+03  0.57849932874E+03  0.00000000000E+00 0. -1.
         21   -1    0    0  504  502  0.00000000000E+00 -0.00000000000E+00 -0.14970871068E+03  0.14970871068E+03  0.00000000000E+00 0.  1.
         21    1    1    2  503  505  0.66104224760E+02 -0.14373490845E+02  0.86053331734E+02  0.10946022873E+03  0.00000000000E+00 0.  1.
         21    1    1    2  504  503 -0.11519485392E+03 -0.14765362604E+02 -0.49609804628E+02  0.12628936225E+03  0.00000000000E+00 0.  1.
         21    1    1    2  505  501  0.10749090992E+03 -0.25353534724E+02  0.20748934284E+02  0.11237266444E+03  0.00000000000E+00 0.  1.
          1    1    1    2  501    0 -0.58400280760E+02  0.54492388172E+02  0.37159815667E+03  0.38008578400E+03  0.00000000000E+00 0. -1.
<scales pt_clust_3="61.07458" pt_clust_4="126.32195" pt_clust_5="61.07458" pt_clust_6="79.87498"></scales>
<clustering>
<clus scale="   61.075">  3  5 -1 -1</clus>
<clus scale="   79.875">  1  6  2 -1</clus>
<clus scale="  126.322">  2  4  1 -1</clus>
<clus scale="  126.322">  2  3  1 -1</clus>
</clustering>
</event>
<event>
 6    0  0.6851428E+002  0.2461322E+03  0.7546771E-02  0.1115774E+00
          2   -1    0    0  503    0 -0.00000000000E+00  0.00000000000E+00  0.29991630489E+04  0.29991630489E+04  0.00000000000E+00 0.  1.
         21   -1    0    0  505  502  0.00000000000E+00 -0.00000000000E+00 -0.74674341874E+02  0.74674341874E+02  0.00000000000E+00 0. -1.
         21    1    1    2  503  504 -0.12377577411E+03 -0.46216480754E+02  0.33501898145E+03  0.36013070305E+03  0.00000000000E+00 0.  1.
         21    1    1    2  504  502 -0.22551605096E+03 -0.43735839515E+02  0.72962847868E+03  0.76493661816E+03  0.00000000000E+00 0.  1.
         21    1    1    2  505  501  0.15494165332E+03  0.15232672527E+03  0.27326999524E+03  0.34912295465E+03  0.00000000000E+00 0. -1.
          2    1    1    2  501    0  0.19435017176E+03 -0.62374405002E+02  0.15865712517E+04  0.15996471149E+04  0.00000000000E+00 0.  1.
<scales pt_clust_3="35.62053" pt_clust_4="35.62053" pt_clust_5="241.60917" pt_clust_6="204.11408"></scales>
<clustering>
<clus scale="   35.621">  3  4 -1 -1</clus>
<clus scale="  204.114">  1  6  2 -1</clus>
<clus scale="  241.609">  2  5  1 -1</clus>
<clus scale="  241.609">  2  3  1 -1</clus>
</clustering>
</event>
<event>
 6    0  0.6851428E+002  0.6552227E+02  0.7546771E-02  0.1376018E+00
          2   -1    0    0  505    0 -0.00000000000E+00  0.00000000000E+00  0.21776768887E+03  0.21776768887E+03  0.00000000000E+00 0.  1.
         21   -1    0    0  503  502  0.00000000000E+00 -0.00000000000E+00 -0.64935223876E+03  0.64935223876E+03  0.00000000000E+00 0. -1.
         21    1    1    2  503  501  0.15114586658E+02 -0.88352906284E+02 -0.50688251097E+02  0.10297565527E+03  0.00000000000E+00 0. -1.
         21    1    1    2  504  502 -0.52964286490E+02 -0.75527294488E-02 -0.50872939175E+03  0.51147904134E+03  0.00000000000E+00 0. -1.
         21    1    1    2  505  504  0.63290369712E+02  0.38890511858E+02 -0.33884513872E+02  0.81647431627E+02  0.00000000000E+00 0. -1.
          2    1    1    2  501    0 -0.25440669879E+02  0.49469947155E+02  0.16171760683E+03  0.17101779940E+03  0.00000000000E+00 0.  1.
<scales pt_clust_3="14000.00000" pt_clust_4="52.96429" pt_clust_5="65.52227" pt_clust_6="56.45884"></scales>
<clustering>
<clus scale="   52.964">  2  4  1 -1</clus>
<clus scale="   56.459">  1  6  2 -1</clus>
<clus scale="   65.522">  2  5  1 -1</clus>
<clus scale="   52.964">  2  3  1 -1</clus>
</clustering>
</event>
<event>
 6    0  0.6851428E+002  0.1806685E+03  0.7546771E-02  0.1167158E+00
          1   -1    0    0  505    0 -0.00000000000E+00  0.00000000000E+00  0.11520096317E+03  0.11520096317E+03  0.00000000000E+00 0. -1.
         21   -1    0    0  504  502  0.00000000000E+00 -0.00000000000E+00 -0.14097398264E+04  0.14097398264E+04  0.00000000000E+00 0. -1.
         21    1    1    2  503  502  0.99499999956E+02 -0.14414167286E+03 -0.10832276167E+04  0.10972962870E+04  0.00000000000E+00 0. -1.
         21    1    1    2  504  501 -0.14093859204E+03  0.16248515294E+03 -0.22975847770E+03  0.31472856517E+03  0.00000000000E+00 0. -1.
         21    1    1    2  505  503  0.32356861182E+02  0.24404027872E+02 -0.27908778166E+02  0.49207956071E+02  0.00000000000E+00 0.  1.
          1    1    1    2  501    0  0.90817309064E+01 -0.42747507951E+02  0.46356009405E+02  0.63707981292E+02  0.00000000000E+00 0. -1.
<scales pt_clust_3="14000.00000" pt_clust_4="180.66849" pt_clust_5="40.52805" pt_clust_6="39.69932"></scales>
<clustering>
<clus scale="   40.528">  1  5  2 -1</clus>
<clus scale="   39.699">  1  6  2 -1</clus>
<clus scale="  180.668">  1  4  2 -1</clus>
<clus scale="  180.668">  2  3  1 -1</clus>
</clustering>
</event>
<event>
 6    0  0.6851428E+002  0.1114070E+03  0.7546771E-02  0.1257986E+00
          1   -1    0    0  505    0 -0.00000000000E+00  0.00000000000E+00  0.19384916023E+04  0.19384916023E+04  0.00000000000E+00 0. -1.
         21   -1    0    0  504  502  0.00000000000E+00 -0.00000000000E+00 -0.35829119240E+03  0.35829119240E+03  0.00000000000E+00 0. -1.
         21    1    1    2  503  501  0.59742731878E+02 -0.11472285507E+02 -0.17512464926E+02  0.63304768974E+02  0.00000000000E+00 0.  1.
         21    1    1    2  504  503 -0.11027393711E+03 -0.32742233640E+02 -0.28753901346E+03  0.30969513934E+03  0.00000000000E+00 0. -1.
         21    1    1    2  505  502  0.48655378875E+02  0.82784322455E+02  0.10190745117E+03  0.14002042187E+03  0.00000000000E+00 0. -1.
          1    1    1    2  501    0  0.18758263538E+01 -0.38569803308E+02  0.17833444371E+04  0.17837624645E+04  0.00000000000E+00 0. -1.
<scales pt_clust_3="62.42811" pt_clust_4="111.40700" pt_clust_5="14000.00000" pt_clust_6="38.61539"></scales>
<clustering>
<clus scale="   38.615">  1  6  2 -1</clus>
<clus scale="   62.428">  1  3  2 -1</clus>
<clus scale="  111.407">  2  4  1 -1</clus>
<clus scale="  111.407">  2  3  1 -1</clus>
</clustering>
</event>
<event>
 6    0  0.6851428E+002  0.2154733E+03  0.7546771E-02  0.1137304E+00
         21   -1    0    0  504  502  0.00000000000E+00  0.00000000000E+00  0.77406523457E+02  0.77406523457E+02  0.00000000000E+00 0.  1.
          2   -1    0    0  505    0 -0.00000000000E+00 -0.00000000000E+00 -0.24448909894E+04  0.24448909894E+04  0.00000000000E+00 0. -1.
         21    1    1    2  503  502 -0.83167648675E+02  0.89412814733E+02 -0.33701437768E+02  0.12667792283E+03  0.00000000000E+00 0.  1.
         21    1    1    2  504  501  0.32077187792E+02  0.56110066243E+01 -0.21969009570E+02  0.39281888365E+02  0.00000000000E+00 0. -1.
         21    1    1    2  505  503 -0.18475493651E+02  0.88067566804E+02 -0.94866672687E+02  0.13075521318E+03  0.00000000000E+00 0.  1.
          2    1    1    2  501    0  0.69565954533E+02 -0.18309138816E+03 -0.22169473459E+04  0.22255824885E+04  0.00000000000E+00 0. -1.
<scales pt_clust_3="79.90071" pt_clust_4="32.56423" pt_clust_5="79.90071" pt_clust_6="196.25826"></scales>
<clustering>
<clus scale="   32.564">  1  4  2 -1</clus>
<clus scale="   79.901">  3  5 -1 -1</clus>
<clus scale="  196.258">  2  6  1 -1</clus>
<clus scale="   32.564">  1  3  2 -1</clus>
</clustering>
</event>
<event>
 6    0  0.6851428E+002  0.6666408E+02  0.7546771E-02  0.1371819E+00
         21   -1    0    0  504  502  0.00000000000E+00  0.00000000000E+00  0.14261475363E+02  0.14261475363E+02  0.00000000000E+00 0. -1.
          3   -1    0    0  505    0 -0.00000000000E+00 -0.00000000000E+00 -0.29775521295E+04  0.29775521295E+04  0.00000000000E+00 0. -1.
         21    1    1    2  503  502  0.94394514202E+02 -0.34861363000E+02 -0.50045058712E+03  0.51046687364E+03  0.00000000000E+00 0. -1.
         21    1    1    2  504  501 -0.48470625563E+02  0.25970066167E+02 -0.10227418894E+03  0.11612000518E+03  0.00000000000E+00 0. -1.
         21    1    1    2  505  503  0.38963747092E+02  0.25540787254E+02 -0.39161552222E+03  0.39437700573E+03  0.00000000000E+00 0. -1.
          3    1    1    2  501    0 -0.84887635731E+02 -0.16649490421E+02 -0.19689503559E+04  0.19708497203E+04  0.00000000000E+00 0. -1.
<scales pt_clust_3="66.66408" pt_clust_4="54.07571" pt_clust_5="46.58868" pt_clust_6="14000.00000"></scales>
<clustering>
<clus scale="   46.589">  2  5  1 -1</clus>
<clus scale="   54.076">  1  4  2 -1</clus>
<clus scale="   66.664">  1  3  2 -1</clus>
<clus scale="   54.076">  1  3  2 -1</clus>
</clustering>
</event>
<event>
 6    0  0.6851428E+002  0.2980392E+03  0.7546771E-02  0.1086225E+00
         21   -1    0    0  505  502  0.00000000000E+00  0.00000000000E+00  0.20217749017E+04  0.20217749017E+04  0.00000000000E+00 0.  1.
          2   -1    0    0  503    0 -0.00000000000E+00 -0.00000000000E+00 -0.35549726321E+04  0.35549726321E+04  0.00000000000E+00 0. -1.
         21    1    1    2  503  504 -0.25623079701E+03  0.12713672222E+03  0.13270948725E+04  0.13575709072E+04  0.00000000000E+00 0.  1.
         21    1    1    2  504  502 -0.34590680332E+02  0.42116361808E+02  0.59636645770E+03  0.59885161348E+03  0.00000000000E+00 0.  1.
         21    1    1    2  505  501  0.23320235266E+02 -0.37708428351E+02  0.69037841487E+02  0.82048659335E+02  0.00000000000E+00 0. -1.
          2    1    1    2  501    0  0.26750124207E+03 -0.13154465567E+03 -0.35256969020E+04  0.35382763538E+04  0.00000000000E+00 0. -1.
<scales pt_clust_3="14000.00000" pt_clust_4="41.04815" pt_clust_5="44.33688" pt_clust_6="298.03923"></scales>
<clustering>
<clus scale="   44.337">  1  5  2 -1</clus>
<clus scale="   41.048">  1  4  2 -1</clus>
<clus scale="  298.039">  2  6  1 -1</clus>
<clus scale="   44.337">  1  3  2 -1</clus>
</clustering>
</event>
<event>
 6    0  0.6851428E+002  0.7293570E+02  0.7546771E-02  0.1350385E+00
          1   -1    0    0  504    0 -0.00000000000E+00  0.00000000000E+00  0.15354867766E+04  0.15354867766E+04  0.00000000000E+00 0.  1.
         21   -1    0    0  503  502  0.00000000000E+00 -0.00000000000E+00 -0.78460414206E+02  0.78460414206E+02  0.00000000000E+00 0. -1.
         21    1    1    2  503  505 -0.67770814700E+01  0.59273057531E+02  0.16452822480E+02  0.61886343808E+02  0.00000000000E+00 0.  1.
         21    1    1    2  504  502 -0.27107780185E+02 -0.15474313391E+02  0.15226186849E+02  0.34729279973E+02  0.00000000000E+00 0.  1.
         21    1    1    2  505  501  0.24276974497E+02 -0.11529822113E+03  0.31968225455E+02  0.12208611193E+03  0.00000000000E+00 0. -1.
          1    1    1    2  501    0  0.96078871579E+01  0.71499476993E+02  0.13933791276E+04  0.13952454551E+04  0.00000000000E+00 0.  1.
<scales pt_clust_3="56.39771" pt_clust_4="31.21356" pt_clust_5="72.93570" pt_clust_6="14000.00000"></scales>
<clustering>
<clus scale="   31.214">  2  4  1 -1</clus>
<clus scale="   56.398">  2  3  1 -1</clus>
<clus scale="   72.936">  2  5  1 -1</clus>
<clus scale="   31.214">  2  3  1 -1</clus>
</clustering>
</event>
<event>
 6    0  0.6851428E+002  0.1082538E+03  0.7546771E-02  0.1263838E+00
          3   -1    0    0  504    0 -0.00000000000E+00  0.00000000000E+00  0.50104679717E+02  0.50104679717E+02  0.00000000000E+00 0. -1.
         21   -1    0    0  505  502  0.00000000000E+00 -0.00000000000E+00 -0.43002338676E+03  0.43002338676E+03  0.00000000000E+00 0. -1.
         21    1    1    2  503  502 -0.73821784460E+02  0.49600125214E+02 -0.21327624028E+03  0.23107700653E+03  0.00000000000E+00 0. -1.
         21    1    1    2  504  503 -0.13587618593E+02  0.35638481798E+02 -0.50978065613E+02  0.63667008234E+02  0.00000000000E+00 0. -1.
         21    1    1    2  505  501  0.27969929785E+02 -0.14738369610E+02 -0.80860049475E+02  0.86820988892E+02  0.00000000000E+00 0. -1.
          3    1    1    2  501    0  0.59439473268E+02 -0.70500237402E+02 -0.34804351679E+02  0.98563062817E+02  0.00000000000E+00 0. -1.
<scales pt_clust_3="30.27778" pt_clust_4="30.27778" pt_clust_5="31.61545" pt_clust_6="97.88364"></scales>
<clustering>
<clus scale="   30.278">  3  4 -1 -1</clus>
<clus scale="   31.615">  2  5  1 -1</clus>
<clus scale="   97.884">  1  6  2 -1</clus>
<clus scale="   31.615">  2  3  1 -1</clus>
</clustering>
</event>
<event>
 6    0  0.6851428E+002  0.1059747E+03  0.7546771E-02  0.1268211E+00
          1   -1    0    0  504    0 -0.00000000000E+00  0.00000000000E+00  0.44290143508E+02  0.44290143508E+02  0.00000000000E+00 0. -1.
         21   -1    0    0  505  502  0.00000000000E+00 -0.00000000000E+00 -0.23559468465E+04  0.23559468465E+04  0.00000000000E+00 0.  1.
         21    1    1    2  503  502  0.82162780266E+02  0.46104023205E+02 -0.21966234408E+04  0.21986429551E+04  0.00000000000E+00 0.  1.
         21    1    1    2  504  503 -0.13047934975E+02  0.41177303020E+02 -0.40875973164E+02  0.59469858527E+02  0.00000000000E+00 0. -1.
         21    1    1    2  505  501 -0.25522672575E+02 -0.68720630045E+02 -0.51619591976E+02  0.89657760874E+02  0.00000000000E+00 0. -1.
          1    1    1    2  501    0 -0.43592172717E+02 -0.18560696180E+02 -0.22537697035E+02  0.52466415472E+02  0.00000000000E+00 0. -1.
<scales pt_clust_3="94.47512" pt_clust_4="43.19513" pt_clust_5="38.59792" pt_clust_6="38.59792"></scales>
<clustering>
<clus scale="   38.598">  5  6 -1 -1</clus>
<clus scale="   43.195">  1  4  2 -1</clus>
<clus scale="   94.475">  2  3  1 -1</clus>
<clus scale="   94.475">  2  3  1 -1</clus>
</clustering>
</event>
<event>
 6    0  0.6851428E+002  0.1684042E+03  0.7546771E-02  0.1179522E+00
          1   -1    0    0  504    0 -0.00000000000E+00  0.00000000000E+00  0.10231692125E+04  0.10231692125E+04  0.00000000000E+00 0.  1.
         21   -1    0    0  505  502  0.00000000000E+00 -0.00000000000E+00 -0.20023594202E+03  0.20023594202E+03  0.00000000000E+00 0. -1.
         21    1    1    2  503  502  0.13039501404E+02 -0.33219968990E+02 -0.35401711451E+02  0.50268042634E+02  0.00000000000E+00 0.  1.
         21    1    1    2  504  503 -0.35383883306E+02 -0.97098130230E+01  0.29309989375E+02  0.46961421869E+02  0.00000000000E+00 0.  1.
         21    1    1    2  505  501 -0.14610417563E+03  0.60018759238E+02 -0.96629012022E+02  0.18516437984E+03  0.00000000000E+00 0. -1.
          1    1    1    2  501    0  0.16844855754E+03 -0.17088977225E+02  0.92565400461E+03  0.94101131021E+03  0.00000000000E+00 0.  1.
<scales pt_clust_3="35.68746" pt_clust_4="36.53403" pt_clust_5="14000.00000" pt_clust_6="168.40424"></scales>
<clustering>
<clus scale="   35.687">  2  3  1 -1</clus>
<clus scale="   36.534">  2  4  1 -1</clus>
<clus scale="  168.404">  1  6  2 -1</clus>
<clus scale="   35.687">  2  3  1 -1</clus>
</clustering>
</event>
<event>
 6    0  0.6851428E+002  0.7428226E+02  0.7546771E-02  0.1346108E+00
          2   -1    0    0  505    0 -0.00000000000E+00  0.00000000000E+00  0.78063735058E+03  0.78063735058E+03  0.00000000000E+00 0. -1.
         21   -1    0    0  501  502  0.00000000000E+00 -0.00000000000E+00 -0.60960029889E+02  0.60960029889E+02  0.00000000000E+00 0. -1.
         21    1    1    2  503  504 -0.65507905727E+01 -0.65277969771E+02  0.61658270567E+02  0.90032597007E+02  0.00000000000E+00 0. -1.
         21    1    1    2  504  502 -0.46399750485E+02 -0.31904541390E+01  0.52401594585E+02  0.70064562781E+02  0.00000000000E+00 0. -1.
         21    1    1    2  505  503 -0.22471420220E+02  0.82433468658E+02  0.16015101201E+02  0.86929425099E+02  0.00000000000E+00 0. -1.
          2    1    1    2  501    0  0.75421961277E+02 -0.13965044748E+02  0.58960235434E+03  0.59457079558E+03  0.00000000000E+00 0. -1.
<scales pt_clust_3="68.87058" pt_clust_4="46.50931" pt_clust_5="14000.00000" pt_clust_6="74.28226"></scales>
<clustering>
<clus scale="   46.509">  2  4  1 -1</clus>
<clus scale="   68.871">  2  3  1 -1</clus>
<clus scale="   74.282">  1  6  2 -1</clus>
<clus scale="   46.509">  2  3  1 -1</clus>
</clustering>
</event>
<event>
 6    0  0.6851428E+002  0.1271728E+03  0.7546771E-02  0.1231712E+00
         21   -1    0    0  504  502  0.00000000000E+00  0.00000000000E+00  0.19279046053E+04  0.19279046053E+04  0.00000000000E+00 0. -1.
          1   -1    0    0  505    0 -0.00000000000E+00 -0.00000000000E+00 -0.33122725796E+02  0.33122725796E+02  0.00000000000E+00 0. -1.
         21    1    1    2  503  501  0.57475218659E+02 -0.25080472235E+02  0.91255922745E+02  0.11072521973E+03  0.00000000000E+00 0. -1.
         21    1    1    2  504  503  0.39075741121E+02  0.19259833420E+02  0.10336031063E+04  0.10345207760E+04  0.00000000000E+00 0. -1.
         21    1    1    2  505  502 -0.14705373352E+03  0.26196434120E+02  0.73734570010E+03  0.75232289288E+03  0.00000000000E+00 0. -1.
          1    1    1    2  501    0  0.50502773738E+02 -0.20375795304E+02  0.32577150343E+02  0.63458442417E+02  0.00000000000E+00 0. -1.
<scales pt_clust_3="33.33785" pt_clust_4="43.56437" pt_clust_5="122.03743" pt_clust_6="33.33785"></scales>
<clustering>
<clus scale="   33.338">  3  6 -1 -1</clus>
<clus scale="   43.564">  1  4  2 -1</clus>
<clus scale="  122.037">  1  5  2 -1</clus>
<clus scale="   43.564">  1  3  2 -1</clus>
</clustering>
</event>
<event>
 6    0  0.6851428E+002  0.8043590E+02  0.7546771E-02  0.1327819E+00
         21   -1    0    0  505  502  0.00000000000E+00  0.00000000000E+00  0.40183597381E+02  0.40183597381E+02  0.00000000000E+00 0.  1.
          2   -1    0    0  504    0 -0.00000000000E+00 -0.00000000000E+00 -0.12780369743E+04  0.12780369743E+04  0.00000000000E+00 0.  1.
         21    1    1    2  503  501  0.74379483282E+02  0.60661351077E+02 -0.17553110627E+03  0.20005818233E+03  0.00000000000E+00 0.  1.
         21    1    1    2  504  502 -0.70647280842E+02 -0.24705166713E+02 -0.98674258420E+02  0.12384665045E+03  0.00000000000E+00 0.  1.
         21    1    1    2  505  503 -0.11422056008E+02  0.41521097238E+02 -0.20034709587E+02  0.47495836317E+02  0.00000000000E+00 0.  1.
          2    1    1    2  501    0  0.76898535674E+01 -0.77477281602E+02 -0.94361330267E+03  0.94681990261E+03  0.00000000000E+00 0.  1.
<scales pt_clust_3="80.43590" pt_clust_4="14000.00000" pt_clust_5="43.06350" pt_clust_6="75.28662"></scales>
<clustering>
<clus scale="   43.063">  1  5  2 -1</clus>
<clus scale="   75.287">  2  6  1 -1</clus>
<clus scale="   80.436">  2  3  1 -1</clus>
<clus scale="   43.063">  1  3  2 -1</clus>
</clustering>
</event>
<event>
 6    0  0.6851428E+002  0.7908928E+02  0.7546771E-02  0.1331656E+00
          1   -1    0    0  505    0 -0.00000000000E+00  0.00000000000E+00  0.55024770405E+02  0.55024770405E+02  0.00000000000E+00 0. -1.
         21   -1    0    0  503  502  0.00000000000E+00 -0.00000000000E+00 -0.64132362186E+03  0.64132362186E+03  0.00000000000E+00 0. -1.
         21    1    1    2  503  501 -0.38778320371E+02  0.24379799135E+02 -0.19004769000E+03  0.19548978800E+03  0.00000000000E+00 0. -1.
         21    1    1    2  504  502 -0.26894396484E+02 -0.60323523196E+02 -0.23098177214E+03  0.24023907899E+03  0.00000000000E+00 0. -1.
         21    1    1    2  505  504  0.76769750467E+02  0.74128329180E+02 -0.18699748017E+03  0.21530597150E+03  0.00000000000E+00 0. -1.
          1    1    1    2  501    0 -0.11097033611E+02 -0.38184605119E+02  0.21728090861E+02  0.45313553773E+02  0.00000000000E+00 0. -1.
<scales pt_clust_3="44.68511" pt_clust_4="79.08928" pt_clust_5="14000.00000" pt_clust_6="39.76441"></scales>
<clustering>
<clus scale="   39.764">  1  6  2 -1</clus>
<clus scale="   44.685">  2  3  1 -1</clus>
<clus scale="   79.089">  2  4  1 -1</clus>
<clus scale="   44.685">  2  3  1 -1</clus>
</clustering>
</event>
<event>
 6    0  0.6851428E+002  0.9323109E+02  0.7546771E-02  0.1295211E+00
         21   -1    0    0  505  502  0.00000000000E+00  0.00000000000E+00  0.40005815205E+03  0.40005815205E+03  0.00000000000E+00 0. -1.
         -4   -1    0    0    0  501 -0.00000000000E+00 -0.00000000000E+00 -0.62234772132E+03  0.62234772132E+03  0.00000000000E+00 0. -1.
         21    1    1    2  503  504  0.10771520250E+03 -0.42732303986E+01  0.70807957400E+02  0.12897516109E+03  0.00000000000E+00 0. -1.
         21    1    1    2  504  501  0.99510440429E+01  0.32789941404E+02  0.18137819834E+02  0.38770917491E+02  0.00000000000E+00 0. -1.
         21    1    1    2  505  503 -0.86612355221E+02 -0.26818668178E+02  0.26371622999E+03  0.27886769444E+03  0.00000000000E+00 0. -1.
         -4    1    1    2    0  502 -0.31053891320E+02 -0.16980428271E+01 -0.57495157649E+03  0.57579210035E+03  0.00000000000E+00 0. -1.
<scales pt_clust_3="93.23109" pt_clust_4="32.56790" pt_clust_5="14000.00000" pt_clust_6="31.10028"></scales>
<clustering>
<clus scale="   31.100">  2  6  1 -1</clus>
<clus scale="   32.568">  2  4  1 -1</clus>
<clus scale="   93.231">  2  3  1 -1</clus>
<clus scale="   93.231">  1  3  2 -1</clus>
</clustering>
</event>
<event>
 6    0  0.6851428E+002  0.6465570E+02  0.7546771E-02  0.1379271E+00
         21   -1    0    0  504  502  0.00000000000E+00  0.00000000000E+00  0.47484834133E+03  0.47484834133E+03  0.00000000000E+00 0. -1.
          2   -1    0    0  503    0 -0.00000000000E+00 -0.00000000000E+00 -0.36455905606E+04  0.36455905606E+04  0.00000000000E+00 0.  1.
         21    1    1    2  503  502 -0.74177059147E+01  0.70692192750E+02  0.25685419439E+02  0.75578761888E+02  0.00000000000E+00 0. -1.
         21    1    1    2  504  505 -0.62497182306E+02 -0.10876180884E+02  0.32286787993E+03  0.32904081358E+03  0.00000000000E+00 0. -1.
         21    1    1    2  505  501  0.10078949146E+03 -0.29689787218E+01  0.72025749394E+02  0.12391547522E+03  0.00000000000E+00 0. -1.
          2    1    1    2  501    0 -0.30874603235E+02 -0.56847033144E+02 -0.35913212681E+04  0.35919038513E+04  0.00000000000E+00 0.  1.
<scales pt_clust_3="14000.00000" pt_clust_4="63.43650" pt_clust_5="60.52006" pt_clust_6="64.65570"></scales>
<clustering>
<clus scale="   63.436">  1  4  2 -1</clus>
<clus scale="   60.520">  1  5  2 -1</clus>
<clus scale="   64.656">  2  6  1 -1</clus>
<clus scale="   63.436">  1  3  2 -1</clus>
</clustering>
</event>
<event>
 6    0  0.6851428E+002  0.1246835E+03  0.7546771E-02  0.1235565E+00
          4   -1    0    0  504    0 -0.00000000000E+00  0.00000000000E+00  0.19635017847E+04  0.19635017847E+04  0.00000000000E+00 0.  1.
         21   -1    0    0  503  502  0.00000000000E+00 -0.00000000000E+00 -0.26539362074E+03  0.26539362074E+03  0.00000000000E+00 0.  1.
         21    1    1    2  503  501  0.96633178020E+02  0.17192934237E+02 -0.10058326005E+03  0.14053668662E+03  0.00000000000E+00 0.  1.
         21    1    1    2  504  505 -0.96269672774E+02  0.37086289062E+02  0.44679531369E+02  0.11242554539E+03  0.00000000000E+00 0.  1.
         21    1    1    2  505  502  0.87093237933E+02 -0.85391089615E+02 -0.75906681488E+02  0.14366173664E+03  0.00000000000E+00 0.  1.
          4    1    1    2  501    0 -0.87456743179E+02  0.31111866316E+02  0.18299185742E+04  0.18322714368E+04  0.00000000000E+00 0.  1.
<scales pt_clust_3="86.26110" pt_clust_4="124.68345" pt_clust_5="14000.00000" pt_clust_6="92.82581"></scales>
<clustering>
<clus scale="   92.826">  1  6  2 -1</clus>
<clus scale="   86.261">  2  3  1 -1</clus>
<clus scale="  124.683">  1  4  2 -1</clus>
<clus scale="   86.261">  2  3  1 -1</clus>
</clustering>
</event>
<event>
 6    0  0.6851428E+002  0.1242884E+03  0.7546771E-02  0.1236186E+00
          2   -1    0    0  504    0 -0.00000000000E+00  0.00000000000E+00  0.83669753045E+03  0.83669753045E+03  0.00000000000E+00 0. -1.
         21   -1    0    0  503  502  0.00000000000E+00 -0.00000000000E+00 -0.90978161099E+02  0.90978161099E+02  0.00000000000E+00 0. -1.
         21    1    1    2  503  505  0.69047084041E+01  0.11154296320E+03  0.19780818628E+02  0.11349356115E+03  0.00000000000E+00 0. -1.
         21    1    1    2  504  502  0.34685462846E+02 -0.78756552222E+02  0.39237910170E+02  0.94579540311E+02  0.00000000000E+00 0.  1.
         21    1    1    2  505  501 -0.31316109221E+02  0.31357196157E+02  0.18127436792E+02  0.47880856428E+02  0.00000000000E+00 0. -1.
          2    1    1    2  501    0 -0.10274062029E+02 -0.64143607132E+02  0.66857320376E+03  0.67172173366E+03  0.00000000000E+00 0. -1.
<scales pt_clust_3="37.72173" pt_clust_4="108.90045" pt_clust_5="37.72173" pt_clust_6="64.96121"></scales>
<clustering>
<clus scale="   37.722">  3  5 -1 -1</clus>
<clus scale="   64.961">  1  6  2 -1</clus>
<clus scale="  108.900">  2  4  1 -1</clus>
<clus scale="  108.900">  2  3  1 -1</clus>
</clustering>
</event>
<event>
 6    0  0.6851428E+002  0.1085036E+03  0.7546771E-02  0.1263366E+00
          2   -1    0    0  503    0 -0.00000000000E+00  0.00000000000E+00  0.56801600125E+03  0.56801600125E+03  0.00000000000E+00 0.  1.
         21   -1    0    0  504  502  0.00000000000E+00 -0.00000000000E+00 -0.18516840142E+03  0.18516840142E+03  0.00000000000E+00 0.  1.
         21    1    1    2  503  502  0.31972431974E+02  0.28751635587E+02 -0.26786059400E+02  0.50659509803E+02  0.00000000000E+00 0.  1.
         21    1    1    2  504  505 -0.20132957487E+02 -0.47763214598E+02 -0.66933597797E+02  0.84656760864E+02  0.00000000000E+00 0.  1.
         21    1    1    2  505  501 -0.52833414777E+02 -0.82625798025E+02 -0.27635199957E+02  0.10189257330E+03  0.00000000000E+00 0.  1.
          2    1    1    2  501    0  0.40993940289E+02  0.10163737704E+03  0.50420245699E+03  0.51597555871E+03  0.00000000000E+00 0.  1.
<scales pt_clust_3="42.99876" pt_clust_4="33.07723" pt_clust_5="14000.00000" pt_clust_6="108.50357"></scales>
<clustering>
<clus scale="   42.999">  2  3  1 -1</clus>
<clus scale="   33.077">  2  4  1 -1</clus>
<clus scale="  108.504">  1  6  2 -1</clus>
<clus scale="   42.999">  2  3  1 -1</clus>
</clustering>
</event>
<event>
 6    0  0.6851428E+002  0.8578536E+02  0.7546771E-02  0.1313391E+00
         -1   -1    0    0    0  501 -0.00000000000E+00  0.00000000000E+00  0.18008084336E+03  0.18008084336E+03  0.00000000000E+00 0. -1.
         21   -1    0    0  503  502  0.00000000000E+00 -0.00000000000E+00 -0.25778798033E+03  0.25778798033E+03  0.00000000000E+00 0. -1.
         21    1    1    2  503  501  0.26354030047E+02 -0.31925154151E+02  0.10010354833E+02  0.42590580780E+02  0.00000000000E+00 0. -1.
         21    1    1    2  504  502  0.76185656862E+02 -0.36761164063E+02 -0.19175166496E+03  0.20958134104E+03  0.00000000000E+00 0. -1.
         21    1    1    2  505  504 -0.66941235640E+02  0.79199937375E+02  0.38953646059E+02  0.11077520323E+03  0.00000000000E+00 0. -1.
         -1    1    1    2    0  505 -0.35598451269E+02 -0.10513619161E+02  0.65080527096E+02  0.74921698644E+02  0.00000000000E+00 0. -1.
<scales pt_clust_3="38.78778" pt_clust_4="14000.00000" pt_clust_5="85.78536" pt_clust_6="37.11854"></scales>
<clustering>
<clus scale="   37.119">  1  6  2 -1</clus>
<clus scale="   38.788">  1  3  2 -1</clus>
<clus scale="   85.785">  1  5  2 -1</clus>
<clus scale="   85.785">  2  3  1 -1</clus>
</clustering>
</event>
<event>
 6    0  0.6851428E+002  0.9621618E+02  0.7546771E-02  0.1288460E+00
         21   -1    0    0  503  502  0.00000000000E+00  0.00000000000E+00  0.11412604333E+04  0.11412604333E+04  0.00000000000E+00 0.  1.
          2   -1    0    0  505    0 -0.00000000000E+00 -0.00000000000E+00 -0.97216878763E+02  0.97216878763E+02  0.00000000000E+00 0.  1.
         21    1    1    2  503  501 -0.78239706407E+02 -0.26017949447E+02  0.10275276100E+04  0.10308304297E+04  0.00000000000E+00 0.  1.
         21    1    1    2  504  502 -0.29947185668E+01  0.32696316587E+02  0.18546940844E+02  0.37709501088E+02  0.00000000000E+00 0.  1.
         21    1    1    2  505  504  0.65530175504E+02  0.58829231830E+02  0.32958787868E+02  0.94028528209E+02  0.00000000000E+00 0. -1.
          2    1    1    2  501    0  0.15704249469E+02 -0.65507598970E+02 -0.34989784233E+02  0.75908853073E+02  0.00000000000E+00 0.  1.
<scales pt_clust_3="82.72300" pt_clust_4="30.00335" pt_clust_5="30.00335" pt_clust_6="67.36371"></scales>
<clustering>
<clus scale="   30.003">  4  5 -1 -1</clus>
<clus scale="   67.364">  2  6  1 -1</clus>
<clus scale="   82.723">  1  3  2 -1</clus>
<clus scale="   82.723">  1  3  2 -1</clus>
</clustering>
</event>
<event>
 6    0  0.6851428E+002  0.9678449E+02  0.7546771E-02  0.1287207E+00
         21   -1    0    0  504  502  0.00000000000E+00  0.00000000000E+00  0.23446200821E+04  0.23446200821E+04  0.00000000000E+00 0. -1.
          2   -1    0    0  503    0 -0.00000000000E+00 -0.00000000000E+00 -0.19491400450E+03  0.19491400450E+03  0.00000000000E+00 0. -1.
         21    1    1    2  503  502 -0.88407677457E+02  0.80936276139E+02  0.13138718620E+04  0.13193278092E+04  0.00000000000E+00 0. -1.
         21    1    1    2  504  505  0.30259694794E+02 -0.10979852256E+02  0.82785581459E+03  0.82848141562E+03  0.00000000000E+00 0. -1.
         21    1    1    2  505  501 -0.25609766857E+02 -0.21837021000E+02  0.18608817095E+03  0.18910717335E+03  0.00000000000E+00 0. -1.
          2    1    1    2  501    0  0.83757749520E+02 -0.48119402883E+02 -0.17810976994E+03  0.20261768848E+03  0.00000000000E+00 0. -1.
<scales pt_clust_3="96.78449" pt_clust_4="32.19016" pt_clust_5="31.87729" pt_clust_6="14000.00000"></scales>
<clustering>
<clus scale="   32.190">  1  4  2 -1</clus>
<clus scale="   31.877">  1  5  2 -1</clus>
<clus scale="   96.784">  1  3  2 -1</clus>
<clus scale="   32.190">  1  3  2 -1</clus>
</clustering>
</event>
<event>
 6    0  0.6851428E+002  0.9907628E+02  0.7546771E-02  0.1282250E+00
         21   -1    0    0  504  502  0.00000000000E+00  0.00000000000E+00  0.73744268610E+02  0.73744268610E+02  0.00000000000E+00 0.  1.
          1   -1    0    0  503    0 -0.00000000000E+00 -0.00000000000E+00 -0.87052904709E+03  0.87052904709E+03  0.00000000000E+00 0. -1.
         21    1    1    2  503  502 -0.27330177053E+02 -0.38262744708E+02 -0.13676273995E+02  0.48969548504E+02  0.00000000000E+00 0.  1.
         21    1    1    2  504  505 -0.94783258954E+02  0.34831441028E+02 -0.32498113725E+02  0.10608120879E+03  0.00000000000E+00 0. -1.
         21    1    1    2  505  501  0.89944900771E+02 -0.16056928206E+02 -0.92422331295E+02  0.12996075346E+03  0.00000000000E+00 0.  1.
          1    1    1    2  501    0  0.32168535236E+02  0.19488231886E+02 -0.65818805946E+03  0.65926180495E+03  0.00000000000E+00 0. -1.
<scales pt_clust_3="41.96820" pt_clust_4="99.07628" pt_clust_5="14000.00000" pt_clust_6="37.61125"></scales>
<clustering>
<clus scale="   37.611">  2  6  1 -1</clus>
<clus scale="   41.968">  1  3  2 -1</clus>
<clus scale="   99.076">  1  4  2 -1</clus>
<clus scale="   41.968">  1  3  2 -1</clus>
</clustering>
</event>
<event>
 6    0  0.6851428E+002  0.1240979E+03  0.7546771E-02  0.1236486E+00
          2   -1    0    0  504    0 -0.00000000000E+00  0.00000000000E+00  0.38742415715E+04  0.38742415715E+04  0.00000000000E+00 0. -1.
         21   -1    0    0  505  502  0.00000000000E+00 -0.00000000000E+00 -0.15444161088E+03  0.15444161088E+03  0.00000000000E+00 0. -1.
         21    1    1    2  503  501 -0.89326884766E+02 -0.71222946513E+02  0.82371818212E+02  0.14084430016E+03  0.00000000000E+00 0. -1.
         21    1    1    2  504  502  0.10092313341E+03  0.10609287150E+02  0.48043888563E+03  0.49103926386E+03  0.00000000000E+00 0.  1.
         21    1    1    2  505  503 -0.32597590901E+02 -0.19797379973E+01 -0.11734253218E+03  0.12180226662E+03  0.00000000000E+00 0. -1.
          2    1    1    2  501    0  0.21001342260E+02  0.62593397360E+02  0.32743317889E+04  0.32749973517E+04  0.00000000000E+00 0. -1.
<scales pt_clust_3="14000.00000" pt_clust_4="124.09794" pt_clust_5="32.65765" pt_clust_6="65.90641"></scales>
<clustering>
<clus scale="   32.658">  2  5  1 -1</clus>
<clus scale="   65.906">  1  6  2 -1</clus>
<clus scale="  124.098">  1  4  2 -1</clus>
<clus scale="   32.658">  2  3  1 -1</clus>
</clustering>
</event>
<event>
 6    0  0.6851428E+002  0.1350319E+03  0.7546771E-02  0.1220175E+00
          2   -1    0    0  502    0 -0.00000000000E+00  0.00000000000E+00  0.23647901633E+04  0.23647901633E+04  0.00000000000E+00 0. -1.
         21   -1    0    0  505  502  0.00000000000E+00 -0.00000000000E+00 -0.39998769752E+02  0.39998769752E+02  0.00000000000E+00 0. -1.
         21    1    1    2  503  504 -0.42603317950E+02  0.39431374012E+02  0.19918926512E+03  0.20747587642E+03  0.00000000000E+00 0. -1.
         21    1    1    2  504  501 -0.71216766066E+02  0.93454078600E+01  0.22407000413E+03  0.23530093746E+03  0.00000000000E+00 0. -1.
         21    1    1    2  505  503  0.98298222784E+02 -0.89014653723E+02  0.11667190302E+03  0.17663092066E+03  0.00000000000E+00 0. -1.
          2    1    1    2  501    0  0.15521861232E+02  0.40237871851E+02  0.17848602213E+04  0.17853811985E+04  0.00000000000E+00 0. -1.
<scales pt_clust_3="35.60658" pt_clust_4="35.60658" pt_clust_5="129.09262" pt_clust_6="43.12789"></scales>
<clustering>
<clus scale="   35.607">  3  4 -1 -1</clus>
<clus scale="   43.128">  1  6  2 -1</clus>
<clus scale="  129.093">  2  5  1 -1</clus>
<clus scale="  129.093">  2  3  1 -1</clus>
</clustering>
</event>
<event>
 6    0  0.6851428E+002  0.1190716E+03  0.7546771E-02  0.1244637E+00
         21   -1    0    0  501  502  0.00000000000E+00  0.00000000000E+00  0.28237152474E+03  0.28237152474E+03  0.00000000000E+00 0. -1.
          1   -1    0    0  504    0 -0.00000000000E+00 -0.00000000000E+00 -0.18565026667E+03  0.18565026667E+03  0.00000000000E+00 0. -1.
         21    1    1    2  503  502  0.40050961846E+02 -0.23542570895E+02  0.99045731546E+02  0.10940013312E+03  0.00000000000E+00 0. -1.
         21    1    1    2  504  505 -0.60518463145E+02 -0.26894460666E+02  0.46891269420E+02  0.81145471493E+02  0.00000000000E+00 0. -1.
         21    1    1    2  505  503 -0.78722984060E+02  0.99360677124E-01  0.76393014890E+02  0.10969599271E+03  0.00000000000E+00 0. -1.
          1    1    1    2  501    0  0.99190485360E+02  0.50337670883E+02 -0.12560875779E+03  0.16778019409E+03  0.00000000000E+00 0. -1.
<scales pt_clust_3="46.45785" pt_clust_4="30.63059" pt_clust_5="30.63059" pt_clust_6="114.29239"></scales>
<clustering>
<clus scale="   30.631">  4  5 -1 -1</clus>
<clus scale="   46.458">  1  3  2 -1</clus>
<clus scale="  114.292">  2  6  1 -1</clus>
<clus scale="   46.458">  1  3  2 -1</clus>
</clustering>
</event>
<event>
 6    0  0.6851428E+002  0.9536354E+02  0.7546771E-02  0.1290359E+00
         -2   -1    0    0    0  501 -0.00000000000E+00  0.00000000000E+00  0.10911895665E+04  0.10911895665E+04  0.00000000000E+00 0. -1.
         21   -1    0    0  503  502  0.00000000000E+00 -0.00000000000E+00 -0.96777893571E+02  0.96777893571E+02  0.00000000000E+00 0.  1.
         21    1    1    2  503  505 -0.66574430081E+02 -0.69498733504E+02 -0.61727767583E+02  0.11433523512E+03  0.00000000000E+00 0.  1.
         21    1    1    2  504  502 -0.46833499468E+02  0.18845708258E+02  0.33846986289E+03  0.34221394693E+03  0.00000000000E+00 0.  1.
         21    1    1    2  505  501  0.84092756765E+02  0.22471019839E+02  0.61261850601E+03  0.61877134095E+03  0.00000000000E+00 0. -1.
         -2    1    1    2    0  504  0.29315172784E+02  0.28182005407E+02  0.10505107165E+03  0.11264693710E+03  0.00000000000E+00 0. -1.
<scales pt_clust_3="14000.00000" pt_clust_4="46.51571" pt_clust_5="95.36354" pt_clust_6="40.66454"></scales>
<clustering>
<clus scale="   40.665">  1  6  2 -1</clus>
<clus scale="   46.516">  1  4  2 -1</clus>
<clus scale="   95.364">  1  5  2 -1</clus>
<clus scale="   95.364">  2  3  1 -1</clus>
</clustering>
</event>
<event>
 6    0  0.6851428E+002  0.9470812E+02  0.7546771E-02  0.1291835E+00
         21   -1    0    0  503  502  0.00000000000E+00  0.00000000000E+00  0.14149967046E+03  0.14149967046E+03  0.00000000000E+00 0.  1.
         -4   -1    0    0    0  501 -0.00000000000E+00 -0.00000000000E+00 -0.35024177744E+03  0.35024177744E+03  0.00000000000E+00 0.  1.
         21    1    1    2  503  505  0.50250588420E+02  0.53103143640E+02  0.48577454401E+02  0.87777187111E+02  0.00000000000E+00 0.  1.
         21    1    1    2  504  502 -0.51022543077E+01 -0.10704139129E+03 -0.41643109784E+02  0.11496973967E+03  0.00000000000E+00 0.  1.
         21    1    1    2  505  501 -0.50703549338E+02 -0.50346022140E+02 -0.14857208740E+03  0.16486126596E+03  0.00000000000E+00 0.  1.
         -4    1    1    2    0  504  0.55552152260E+01  0.10428426979E+03 -0.67104364195E+02  0.12413325515E+03  0.00000000000E+00 0.  1.
<scales pt_clust_3="65.87719" pt_clust_4="14000.00000" pt_clust_5="71.45328" pt_clust_6="94.70812"></scales>
<clustering>
<clus scale="   71.453">  2  5  1 -1</clus>
<clus scale="   65.877">  1  3  2 -1</clus>
<clus scale="   94.708">  2  6  1 -1</clus>
<clus scale="   65.877">  1  3  2 -1</clus>
</clustering>
</event>
<event>
 6    0  0.6851428E+002  0.8839911E+02  0.7546771E-02  0.1306775E+00
         21   -1    0    0  504  502  0.00000000000E+00  0.00000000000E+00  0.11909251746E+02  0.11909251746E+02  0.00000000000E+00 0. -1.
          2   -1    0    0  502    0 -0.00000000000E+00 -0.00000000000E+00 -0.56392474305E+04  0.56392474305E+04  0.00000000000E+00 0. -1.
         21    1    1    2  503  505  0.61526441276E+02 -0.36091862793E+02 -0.32141499761E+03  0.32923506227E+03  0.00000000000E+00 0. -1.
         21    1    1    2  504  503 -0.26864677446E+02  0.40932087590E+02 -0.19751065226E+03  0.20348858554E+03  0.00000000000E+00 0. -1.
         21    1    1    2  505  501  0.32163059290E+02 -0.45445929198E+02 -0.16013373639E+03  0.16953645152E+03  0.00000000000E+00 0. -1.
          2    1    1    2  501    0 -0.66824823120E+02  0.40605704401E+02 -0.49482787925E+04  0.49488965830E+04  0.00000000000E+00 0. -1.
<scales pt_clust_3="33.73096" pt_clust_4="48.96066" pt_clust_5="33.73096" pt_clust_6="79.72889"></scales>
<clustering>
<clus scale="   33.731">  3  5 -1 -1</clus>
<clus scale="   48.961">  1  4  2 -1</clus>
<clus scale="   79.729">  2  6  1 -1</clus>
<clus scale="   48.961">  1  3  2 -1</clus>
</clustering>
</event>
<event>
 6    0  0.6851428E+002  0.1558698E+03  0.7546771E-02  0.1193440E+00
         21   -1    0    0  504  502  0.00000000000E+00  0.00000000000E+00  0.15861451880E+04  0.15861451880E+04  0.00000000000E+00 0. -1.
          2   -1    0    0  503    0 -0.00000000000E+00 -0.00000000000E+00 -0.30801197051E+03  0.30801197051E+03  0.00000000000E+00 0. -1.
         21    1    1    2  503  502 -0.10367973888E+03 -0.13854849114E+01  0.15525267902E+03  0.18669440850E+03  0.00000000000E+00 0. -1.
         21    1    1    2  504  505  0.16662231659E+03 -0.63660095271E+02  0.13026509286E+04  0.13148060868E+04  0.00000000000E+00 0. -1.
         21    1    1    2  505  501 -0.11972958420E+02  0.65181248568E+02  0.93538354783E+02  0.11463581776E+03  0.00000000000E+00 0. -1.
          2    1    1    2  501    0 -0.50969619295E+02 -0.13566838503E+00 -0.27330874487E+03  0.27802084548E+03  0.00000000000E+00 0. -1.
<scales pt_clust_3="155.86982" pt_clust_4="14000.00000" pt_clust_5="71.13708" pt_clust_6="50.96980"></scales>
<clustering>
<clus scale="   50.970">  2  6  1 -1</clus>
<clus scale="   71.137">  2  5  1 -1</clus>
<clus scale="  155.870">  2  3  1 -1</clus>
<clus scale="  155.870">  1  3  2 -1</clus>
</clustering>
</event>
<event>
 6    0  0.6851428E+002  0.2000697E+03  0.7546771E-02  0.1149680E+00
         21   -1    0    0  504  502  0.00000000000E+00  0.00000000000E+00  0.15535332267E+03  0.15535332267E+03  0.00000000000E+00 0.  1.
          2   -1    0    0  503    0 -0.00000000000E+00 -0.00000000000E+00 -0.20803830208E+04  0.20803830208E+04  0.00000000000E+00 0. -1.
         21    1    1    2  503  502 -0.73745894851E+02  0.18319338393E+02 -0.44569778454E+02  0.88093815435E+02  0.00000000000E+00 0.  1.
         21    1    1    2  504  505  0.70892063638E+02 -0.47176810783E+02 -0.59708664180E+01  0.85363853054E+02  0.00000000000E+00 0.  1.
         21    1    1    2  505  501  0.46987052115E+02 -0.14787779773E+03  0.22304407646E+02  0.15675813449E+03  0.00000000000E+00 0.  1.
          2    1    1    2  501    0 -0.44133220902E+02  0.17673527012E+03 -0.18967934609E+04  0.19055205405E+04  0.00000000000E+00 0. -1.
<scales pt_clust_3="75.98720" pt_clust_4="59.33228" pt_clust_5="59.33228" pt_clust_6="183.33952"></scales>
<clustering>
<clus scale="   59.332">  4  5 -1 -1</clus>
<clus scale="   75.987">  1  3  2 -1</clus>
<clus scale="  183.340">  2  6  1 -1</clus>
<clus scale="   75.987">  1  3  2 -1</clus>
</clustering>
</event>
<event>
 6    0  0.6851428E+002  0.9560704E+02  0.7546771E-02  0.1289815E+00
         21   -1    0    0  505  502  0.00000000000E+00  0.00000000000E+00  0.42044278645E+02  0.42044278645E+02  0.00000000000E+00 0. -1.
          1   -1    0    0  503    0 -0.00000000000E+00 -0.00000000000E+00 -0.11520807312E+04  0.11520807312E+04  0.00000000000E+00 0. -1.
         21    1    1    2  503  504  0.44331376190E+02 -0.21652070526E+02 -0.48918953351E+03  0.49167111240E+03  0.00000000000E+00 0. -1.
         21    1    1    2  504  502 -0.18359238202E+02  0.11939357432E+03 -0.82330131211E+02  0.14618528558E+03  0.00000000000E+00 0. -1.
         21    1    1    2  505  501  0.29872076450E+02 -0.23670806774E+02 -0.82032055173E+02  0.90453889472E+02  0.00000000000E+00 0. -1.
          1    1    1    2  501    0 -0.55844214438E+02 -0.74070697016E+02 -0.45648473262E+03  0.46581472235E+03  0.00000000000E+00 0. -1.
<scales pt_clust_3="50.55814" pt_clust_4="95.60704" pt_clust_5="38.11362" pt_clust_6="14000.00000"></scales>
<clustering>
<clus scale="   38.114">  1  5  2 -1</clus>
<clus scale="   50.558">  2  3  1 -1</clus>
<clus scale="   95.607">  1  4  2 -1</clus>
<clus scale="   38.114">  1  3  2 -1</clus>
</clustering>
</event>
<event>
 6    0  0.6851428E+002  0.9167019E+02  0.7546771E-02  0.1298857E+00
          2   -1    0    0  502    0 -0.00000000000E+00  0.00000000000E+00  0.13816103114E+04  0.13816103114E+04  0.00000000000E+00 0. -1.
         21   -1    0    0  505  502  0.00000000000E+00 -0.00000000000E+00 -0.12938799491E+04  0.12938799491E+04  0.00000000000E+00 0. -1.
         21    1    1    2  503  501  0.91816131367E+02 -0.70968433826E+02 -0.36800902344E+03  0.38587220931E+03  0.00000000000E+00 0. -1.
         21    1    1    2  504  503 -0.65624806403E+02  0.14648220618E+01 -0.43402852099E+03  0.43896414199E+03  0.00000000000E+00 0. -1.
         21    1    1    2  505  504  0.41617660914E+02  0.79610247851E+01 -0.47797474736E+03  0.47984921249E+03  0.00000000000E+00 0. -1.
          2    1    1    2  501    0 -0.67808985878E+02  0.61542586980E+02  0.13677426541E+04  0.13708046967E+04  0.00000000000E+00 0. -1.
<scales pt_clust_3="91.67019" pt_clust_4="43.71144" pt_clust_5="42.37225" pt_clust_6="14000.00000"></scales>
<clustering>
<clus scale="   42.372">  2  5  1 -1</clus>
<clus scale="   43.711">  2  4  1 -1</clus>
<clus scale="   91.670">  2  3  1 -1</clus>
<clus scale="   42.372">  2  3  1 -1</clus>
</clustering>
</event>
<event>
 6    0  0.6851428E+002  0.9440587E+02  0.7546771E-02  0.1292520E+00
          1   -1    0    0  503    0 -0.00000000000E+00  0.00000000000E+00  0.93532089685E+03  0.93532089685E+03  0.00000000000E+00 0.  1.
         21   -1    0    0  501  502  0.00000000000E+00 -0.00000000000E+00 -0.12280427416E+04  0.12280427416E+04  0.00000000000E+00 0.  1.
         21    1    1    2  503  505  0.92666198343E+01  0.10858809678E+03  0.42508142981E+02  0.11697943078E+03  0.00000000000E+00 0.  1.
         21    1    1    2  504  502  0.30188711677E+02 -0.22297620609E+02 -0.10576269509E+04  0.10582926389E+04  0.00000000000E+00 0.  1.
         21    1    1    2  505  504 -0.81264246184E+02 -0.57290004571E+02 -0.11336047045E+03  0.15078666583E+03  0.00000000000E+00 0.  1.
          1    1    1    2  501    0  0.41808914673E+02 -0.29000471598E+02  0.83575743363E+03  0.83730490298E+03  0.00000000000E+00 0.  1.
<scales pt_clust_3="94.40587" pt_clust_4="37.53055" pt_clust_5="14000.00000" pt_clust_6="51.05300"></scales>
<clustering>
<clus scale="   37.531">  2  4  1 -1</clus>
<clus scale="   51.053">  1  6  2 -1</clus>
<clus scale="   94.406">  1  3  2 -1</clus>
<clus scale="   37.531">  2  3  1 -1</clus>
</clustering>
</event>
<event>
 6    0  0.6851428E+002  0.2141718E+03  0.7546771E-02  0.1138304E+00
         -2   -1    0    0    0  501 -0.00000000000E+00  0.00000000000E+00  0.79773720749E+03  0.79773720749E+03  0.00000000000E+00 0. -1.
         21   -1    0    0  504  502  0.00000000000E+00 -0.00000000000E+00 -0.13643034141E+04  0.13643034141E+04  0.00000000000E+00 0.  1.
         21    1    1    2  503  501  0.77600909536E+02 -0.12727481574E+03  0.85919371718E+02  0.17205498633E+03  0.00000000000E+00 0.  1.
         21    1    1    2  504  505 -0.16454739583E+03  0.12336667229E+03 -0.12779122730E+04  0.12943550358E+04  0.00000000000E+00 0.  1.
         21    1    1    2  505  503  0.56343288877E+02 -0.47750696449E+02  0.68790838712E+01  0.74175582288E+02  0.00000000000E+00 0.  1.
         -2    1    1    2    0  502  0.30603197418E+02  0.51658839907E+02  0.61854761083E+03  0.62145501711E+03  0.00000000000E+00 0. -1.
<scales pt_clust_3="41.30179" pt_clust_4="205.97721" pt_clust_5="41.30179" pt_clust_6="60.04325"></scales>
<clustering>
<clus scale="   41.302">  3  5 -1 -1</clus>
<clus scale="   60.043">  1  6  2 -1</clus>
<clus scale="  205.977">  2  4  1 -1</clus>
<clus scale="  205.977">  2  3  1 -1</clus>
</clustering>
</event>
<event>
 6    0  0.6851428E+002  0.8782935E+02  0.7546771E-02  0.1308195E+00
          1   -1    0    0  505    0 -0.00000000000E+00  0.00000000000E+00  0.34689014927E+04  0.34689014927E+04  0.00000000000E+00 0. -1.
         21   -1    0    0  504  502  0.00000000000E+00 -0.00000000000E+00 -0.16935469721E+02  0.16935469721E+02  0.00000000000E+00 0. -1.
         21    1    1    2  503  501 -0.85641469972E+02 -0.59993375108E+02  0.99834149572E+03  0.10038024749E+04  0.00000000000E+00 0. -1.
         21    1    1    2  504  503  0.37601224304E+02  0.17740632582E+02  0.23867019612E+02  0.47939719844E+02  0.00000000000E+00 0. -1.
         21    1    1    2  505  502 -0.43604040777E+02  0.17758604486E+02  0.10679569341E+04  0.10689942439E+04  0.00000000000E+00 0. -1.
          1    1    1    2  501    0  0.91644286445E+02  0.24494138041E+02  0.13618005735E+04  0.13651005238E+04  0.00000000000E+00 0. -1.
<scales pt_clust_3="14000.00000" pt_clust_4="41.57622" pt_clust_5="44.22227" pt_clust_6="87.82935"></scales>
<clustering>
<clus scale="   41.576">  2  4  1 -1</clus>
<clus scale="   44.222">  1  5  2 -1</clus>
<clus scale="   87.829">  1  6  2 -1</clus>
<clus scale="   41.576">  2  3  1 -1</clus>
</clustering>
</event>
<event>
 6    0  0.6851428E+002  0.1333870E+03  0.7546771E-02  0.1222515E+00
          2   -1    0    0  504    0 -0.00000000000E+00  0.00000000000E+00  0.48340664031E+04  0.48340664031E+04  0.00000000000E+00 0.  1.
         21   -1    0    0  505  502  0.00000000000E+00 -0.00000000000E+00 -0.33182426872E+03  0.33182426872E+03  0.00000000000E+00 0.  1.
         21    1    1    2  503  502  0.32629209046E+02  0.72949754777E+01 -0.20888404027E+03  0.21154296072E+03  0.00000000000E+00 0.  1.
         21    1    1    2  504  503  0.72239808168E+02  0.14701052892E+02 -0.85901892146E+02  0.11319825933E+03  0.00000000000E+00 0.  1.
         21    1    1    2  505  501  0.12449502645E+01  0.59866947214E+02  0.21321353572E+02  0.63562578519E+02  0.00000000000E+00 0.  1.
          2    1    1    2  501    0 -0.10611396748E+03 -0.81862975584E+02  0.47757067132E+04  0.47775868733E+04  0.00000000000E+00 0.  1.
<scales pt_clust_3="33.43474" pt_clust_4="133.38701" pt_clust_5="61.52338" pt_clust_6="14000.00000"></scales>
<clustering>
<clus scale="   33.435">  2  3  1 -1</clus>
<clus scale="   61.523">  2  5  1 -1</clus>
<clus scale="  133.387">  2  4  1 -1</clus>
<clus scale="   33.435">  2  3  1 -1</clus>
</clustering>
</event>
<event>
 6    0  0.6851428E+002  0.1236519E+03  0.7546771E-02  0.1237191E+00
          2   -1    0    0  502    0 -0.00000000000E+00  0.00000000000E+00  0.83133767055E+03  0.83133767055E+03  0.00000000000E+00 0. -1.
         21   -1    0    0  505  502  0.00000000000E+00 -0.00000000000E+00 -0.41066078012E+03  0.41066078012E+03  0.00000000000E+00 0.  1.
         21    1    1    2  503  501 -0.63406814655E+02 -0.43777413631E+02 -0.16791767166E+03  0.18475180796E+03  0.00000000000E+00 0.  1.
         21    1    1    2  504  503 -0.41742267243E+02  0.62933387926E+02 -0.19666203380E+03  0.21066319975E+03  0.00000000000E+00 0.  1.
         21    1    1    2  505  504 -0.18781084805E+02 -0.36722473094E+02 -0.92554692791E+01  0.42272128976E+02  0.00000000000E+00 0.  1.
          2    1    1    2  501    0  0.12393016670E+03  0.17566498799E+02  0.79451206517E+03  0.80431131398E+03  0.00000000000E+00 0. -1.
<scales pt_clust_3="123.65187" pt_clust_4="67.55195" pt_clust_5="41.24644" pt_clust_6="14000.00000"></scales>
<clustering>
<clus scale="   41.246">  2  5  1 -1</clus>
<clus scale="   67.552">  2  4  1 -1</clus>
<clus scale="  123.652">  2  3  1 -1</clus>
<clus scale="   41.246">  2  3  1 -1</clus>
</clustering>
</event>
<event>
 6    0  0.6851428E+002  0.1361953E+03  0.7546771E-02  0.1218542E+00
         21   -1    0    0  503  502  0.00000000000E+00  0.00000000000E+00  0.11660593284E+04  0.11660593284E+04  0.00000000000E+00 0. -1.
          2   -1    0    0  505    0 -0.00000000000E+00 -0.00000000000E+00 -0.59832758266E+03  0.59832758266E+03  0.00000000000E+00 0.  1.
         21    1    1    2  503  504  0.71179857843E+01  0.40770445876E+02  0.56881678653E+03  0.57032046397E+03  0.00000000000E+00 0. -1.
         21    1    1    2  504  501 -0.50822149601E+01  0.86719956058E+02  0.55693161439E+03  0.56366568353E+03  0.00000000000E+00 0. -1.
         21    1    1    2  505  502  0.57570235540E+02 -0.36271351329E+02 -0.66479914118E+01  0.68367673188E+02  0.00000000000E+00 0. -1.
          2    1    1    2  501    0 -0.59606006364E+02 -0.91219050605E+02 -0.55136866381E+03  0.56203309033E+03  0.00000000000E+00 0.  1.
<scales pt_clust_3="33.51172" pt_clust_4="33.51172" pt_clust_5="68.04368" pt_clust_6="127.24777"></scales>
<clustering>
<clus scale="   33.512">  3  4 -1 -1</clus>
<clus scale="   68.044">  2  5  1 -1</clus>
<clus scale="  127.248">  2  6  1 -1</clus>
<clus scale="  136.195">  1  3  2 -1</clus>
</clustering>
</event>
<event>
 6    0  0.6851428E+002  0.1610304E+03  0.7546771E-02  0.1187538E+00
         21   -1    0    0  505  502  0.00000000000E+00  0.00000000000E+00  0.39994057318E+03  0.39994057318E+03  0.00000000000E+00 0.  1.
          1   -1    0    0  504    0 -0.00000000000E+00 -0.00000000000E+00 -0.90369497975E+03  0.90369497975E+03  0.00000000000E+00 0.  1.
         21    1    1    2  503  501 -0.16505702397E+02  0.76058552436E+02  0.15074107006E+03  0.16964731596E+03  0.00000000000E+00 0.  1.
         21    1    1    2  504  502 -0.13089199084E+01 -0.41282273706E+02 -0.67022824965E+02  0.78727367922E+02  0.00000000000E+00 0.  1.
         21    1    1    2  505  503  0.98632994013E+01  0.81535426249E+02  0.22237910761E+03  0.23706070511E+03  0.00000000000E+00 0.  1.
          1    1    1    2  501    0  0.79513229041E+01 -0.11631170498E+03 -0.80985175928E+03  0.81820016393E+03  0.00000000000E+00 0.  1.
<scales pt_clust_3="35.27064" pt_clust_4="41.30302" pt_clust_5="35.27064" pt_clust_6="156.90130"></scales>
<clustering>
<clus scale="   35.271">  3  5 -1 -1</clus>
<clus scale="   41.303">  2  4  1 -1</clus>
<clus scale="  156.901">  2  6  1 -1</clus>
<clus scale="  161.030">  1  3  2 -1</clus>
</clustering>
</event>
<event>
 6    0  0.6851428E+002  0.8521638E+02  0.7546771E-02  0.1314868E+00
         -1   -1    0    0    0  501 -0.00000000000E+00  0.00000000000E+00  0.51770024511E+03  0.51770024511E+03  0.00000000000E+00 0.  1.
         21   -1    0    0  504  502  0.00000000000E+00 -0.00000000000E+00 -0.16583128302E+03  0.16583128302E+03  0.00000000000E+00 0.  1.
         21    1    1    2  503  505  0.24126869616E+02 -0.97303779657E+02  0.27109999284E+03  0.28904210332E+03  0.00000000000E+00 0.  1.
         21    1    1    2  504  501  0.81126456416E+01  0.36473707121E+02 -0.12255454610E+03  0.12812401453E+03  0.00000000000E+00 0.  1.
         21    1    1    2  505  502  0.21422468848E+02  0.57186590579E+02  0.54476050791E+01  0.61309907150E+02  0.00000000000E+00 0.  1.
         -1    1    1    2    0  503 -0.53661984106E+02  0.36434819567E+01  0.19787591027E+03  0.20505550313E+03  0.00000000000E+00 0.  1.
<scales pt_clust_3="14000.00000" pt_clust_4="37.36504" pt_clust_5="85.21638" pt_clust_6="53.38754"></scales>
<clustering>
<clus scale="   37.365">  2  4  1 -1</clus>
<clus scale="   53.388">  1  6  2 -1</clus>
<clus scale="   85.216">  2  5  1 -1</clus>
<clus scale="   37.365">  2  3  1 -1</clus>
</clustering>
</event>
<event>
 6    0  0.6851428E+002  0.2013075E+03  0.7546771E-02  0.1148641E+00
         21   -1    0    0  504  502  0.00000000000E+00  0.00000000000E+00  0.31809509045E+03  0.31809509045E+03  0.00000000000E+00 0. -1.
          1   -1    0    0  505    0 -0.00000000000E+00 -0.00000000000E+00 -0.17733686608E+04  0.17733686608E+04  0.00000000000E+00 0. -1.
         21    1    1    2  503  501 -0.22798082982E+03  0.31898320963E+02 -0.13938425746E+03  0.26911100474E+03  0.00000000000E+00 0. -1.
         21    1    1    2  504  503 -0.34335175133E+02  0.33618481771E+02 -0.10459081416E+02  0.49178236569E+02  0.00000000000E+00 0. -1.
         21    1    1    2  505  502  0.17324488418E+03 -0.23709418591E+02  0.19935485071E+03  0.26517594712E+03  0.00000000000E+00 0. -1.
          1    1    1    2  501    0  0.89071120766E+02 -0.41807384144E+02 -0.15047850822E+04  0.15079985628E+04  0.00000000000E+00 0. -1.
<scales pt_clust_3="34.65368" pt_clust_4="34.65368" pt_clust_5="186.47211" pt_clust_6="98.39473"></scales>
<clustering>
<clus scale="   34.654">  3  4 -1 -1</clus>
<clus scale="   98.395">  2  6  1 -1</clus>
<clus scale="  186.472">  1  5  2 -1</clus>
<clus scale="  186.472">  1  3  2 -1</clus>
</clustering>
</event>
<event>
 6    0  0.1048825E+003  0.1474447E+03  0.7546771E-02  0.1203649E+00
         21   -1    0    0  503  502  0.00000000000E+00  0.00000000000E+00  0.32041264886E+03  0.32041264886E+03  0.00000000000E+00 0. -1.
          2   -1    0    0  505    0 -0.00000000000E+00 -0.00000000000E+00 -0.65615745110E+03  0.65615745110E+03  0.00000000000E+00 0.  1.
         21    1    1    2  503  501 -0.61578620041E+02  0.10258498644E+02  0.23716284618E+03  0.24524147049E+03  0.00000000000E+00 0. -1.
         21    1    1    2  504  502 -0.56243235438E+02  0.19826574640E+02  0.31399246386E+02  0.67396641371E+02  0.00000000000E+00 0. -1.
         21    1    1    2  505  504 -0.29588686774E+02 -0.19358401857E+02  0.61045334056E+01  0.35881798109E+02  0.00000000000E+00 0. -1.
          2    1    1    2  501    0  0.14741054225E+03 -0.10726671427E+02 -0.61041142821E+03  0.62805018999E+03  0.00000000000E+00 0.  1.
<scales pt_clust_3="62.42726" pt_clust_4="33.49817" pt_clust_5="33.49817" pt_clust_6="140.88072"></scales>
<clustering>
<clus scale="   33.498">  4  5 -1 -1</clus>
<clus scale="   62.427">  1  3  2 -1</clus>
<clus scale="  140.881">  2  6  1 -1</clus>
<clus scale="   62.427">  1  3  2 -1</clus>
</clustering>
</event>
<event>
 6    0  0.6851428E+002  0.1006903E+03  0.7546771E-02  0.1278851E+00
          2   -1    0    0  503    0 -0.00000000000E+00  0.00000000000E+00  0.77832666655E+03  0.77832666655E+03  0.00000000000E+00 0.  1.
         21   -1    0    0  505  502  0.00000000000E+00 -0.00000000000E+00 -0.13997494218E+03  0.13997494218E+03  0.00000000000E+00 0.  1.
         21    1    1    2  503  504  0.39668489893E+02 -0.18577024998E+02  0.58491276616E+02  0.73074786269E+02  0.00000000000E+00 0.  1.
         21    1    1    2  504  502 -0.25894360138E+02 -0.86174799539E+02 -0.55155171602E+02  0.10554007257E+03  0.00000000000E+00 0.  1.
         21    1    1    2  505  501 -0.71727327203E+02  0.39732707158E+02 -0.15429582895E+02  0.83436020483E+02  0.00000000000E+00 0.  1.
          2    1    1    2  501    0  0.57953197448E+02  0.65019117379E+02  0.65044520225E+03  0.65625072941E+03  0.00000000000E+00 0.  1.
<scales pt_clust_3="43.80291" pt_clust_4="100.69030" pt_clust_5="79.91156" pt_clust_6="14000.00000"></scales>
<clustering>
<clus scale="   43.803">  1  3  2 -1</clus>
<clus scale="   79.912">  2  5  1 -1</clus>
<clus scale="  100.690">  2  4  1 -1</clus>
<clus scale="   79.912">  2  3  1 -1</clus>
</clustering>
</event>
<event>
 6    0  0.6851428E+002  0.9989076E+02  0.7546771E-02  0.1280526E+00
         21   -1    0    0  503  502  0.00000000000E+00  0.00000000000E+00  0.27082751773E+03  0.27082751773E+03  0.00000000000E+00 0. -1.
          1   -1    0    0  502    0 -0.00000000000E+00 -0.00000000000E+00 -0.10204190275E+04  0.10204190275E+04  0.00000000000E+00 0.  1.
         21    1    1    2  503  504  0.51640812978E+02 -0.38839145528E+02  0.23367930263E+03  0.24244848786E+03  0.00000000000E+00 0. -1.
         21    1    1    2  504  505 -0.33049615772E+02  0.13977785336E+03 -0.16246066182E+03  0.21684923802E+03  0.00000000000E+00 0. -1.
         21    1    1    2  505  501 -0.33846571599E+02 -0.71024620185E+02 -0.30290148972E+03  0.31295271137E+03  0.00000000000E+00 0. -1.
          1    1    1    2  501    0  0.15255374393E+02 -0.29914087646E+02 -0.51790866091E+03  0.51899610802E+03  0.00000000000E+00 0.  1.
<scales pt_clust_3="64.87988" pt_clust_4="14000.00000" pt_clust_5="99.89076" pt_clust_6="33.57944"></scales>
<clustering>
<clus scale="   33.579">  2  6  1 -1</clus>
<clus scale="   64.880">  1  3  2 -1</clus>
<clus scale="   99.891">  2  5  1 -1</clus>
<clus scale="   64.880">  1  3  2 -1</clus>
</clustering>
</event>
<event>
 6    0  0.6851428E+002  0.1293796E+03  0.7546771E-02  0.1228379E+00
         21   -1    0    0  505  502  0.00000000000E+00  0.00000000000E+00  0.26431486835E+02  0.26431486835E+02  0.00000000000E+00 0.  1.
          2   -1    0    0  502    0 -0.00000000000E+00 -0.00000000000E+00 -0.21256898700E+04  0.21256898700E+04  0.00000000000E+00 0.  1.
         21    1    1    2  503  501  0.23562401431E+02 -0.13438132981E+03 -0.60934555037E+03  0.62443216471E+03  0.00000000000E+00 0.  1.
         21    1    1    2  504  503 -0.53254468901E+02  0.10928459490E+03 -0.26581428141E+03  0.29229504501E+03  0.00000000000E+00 0.  1.
         21    1    1    2  505  504 -0.33326176741E+02  0.17484303601E+01 -0.54771109776E+02  0.64137083898E+02  0.00000000000E+00 0.  1.
          2    1    1    2  501    0  0.63018244211E+02  0.23348304554E+02 -0.11693274416E+04  0.11712570632E+04  0.00000000000E+00 0.  1.
<scales pt_clust_3="129.37961" pt_clust_4="14000.00000" pt_clust_5="33.37201" pt_clust_6="65.84771"></scales>
<clustering>
<clus scale="   33.372">  1  5  2 -1</clus>
<clus scale="   65.848">  2  6  1 -1</clus>
<clus scale="  129.380">  2  3  1 -1</clus>
<clus scale="   33.372">  1  3  2 -1</clus>
</clustering>
</event>
<event>
 6    0  0.6851428E+002  0.7548466E+02  0.7546771E-02  0.1342377E+00
          2   -1    0    0  505    0 -0.00000000000E+00  0.00000000000E+00  0.39620091506E+04  0.39620091506E+04  0.00000000000E+00 0.  1.
         21   -1    0    0  503  502  0.00000000000E+00 -0.00000000000E+00 -0.56589605057E+02  0.56589605057E+02  0.00000000000E+00 0.  1.
         21    1    1    2  503  504 -0.68579517882E-01 -0.35290174284E+02 -0.37430473368E+02  0.51443575310E+02  0.00000000000E+00 0.  1.
         21    1    1    2  504  501 -0.13082687661E+02 -0.87303588825E+02  0.25565181856E+03  0.27046427800E+03  0.00000000000E+00 0. -1.
         21    1    1    2  505  502  0.56945834416E+02  0.60367402135E+02  0.39548381799E+03  0.40409714376E+03  0.00000000000E+00 0. -1.
          2    1    1    2  501    0 -0.43794567237E+02  0.62226360974E+02  0.32917143823E+04  0.32925937586E+04  0.00000000000E+00 0.  1.
<scales pt_clust_3="35.29024" pt_clust_4="75.48466" pt_clust_5="74.36903" pt_clust_6="14000.00000"></scales>
<clustering>
<clus scale="   35.290">  2  3  1 -1</clus>
<clus scale="   74.369">  2  5  1 -1</clus>
<clus scale="   75.485">  2  4  1 -1</clus>
<clus scale="   35.290">  2  3  1 -1</clus>
</clustering>
</event>
<event>
 6    0  0.6851428E+002  0.6561630E+02  0.7546771E-02  0.1375668E+00
          1   -1    0    0  504    0 -0.00000000000E+00  0.00000000000E+00  0.11066663331E+04  0.11066663331E+04  0.00000000000E+00 0.  1.
         21   -1    0    0  505  502  0.00000000000E+00 -0.00000000000E+00 -0.99861401219E+02  0.99861401219E+02  0.00000000000E+00 0.  1.
         21    1    1    2  503  502  0.23517485003E+02  0.35887004520E+02 -0.11663462073E+02  0.44463305566E+02  0.00000000000E+00 0.  1.
         21    1    1    2  504  503 -0.61239665310E+02 -0.15455277745E+02  0.13073325435E+03  0.14519072288E+03  0.00000000000E+00 0. -1.
         21    1    1    2  505  501 -0.51813249388E+02 -0.86270351239E+02 -0.19796406177E+02  0.10256258583E+03  0.00000000000E+00 0.  1.
          1    1    1    2  501    0  0.89535429695E+02  0.65838624464E+02  0.90753154575E+03  0.91431112001E+03  0.00000000000E+00 0.  1.
<scales pt_clust_3="42.90628" pt_clust_4="60.05110" pt_clust_5="65.61630" pt_clust_6="14000.00000"></scales>
<clustering>
<clus scale="   42.906">  2  3  1 -1</clus>
<clus scale="   60.051">  1  4  2 -1</clus>
<clus scale="   65.616">  2  5  1 -1</clus>
<clus scale="   42.906">  2  3  1 -1</clus>
</clustering>
</event>
<event>
 6    0  0.6851428E+002  0.8515815E+02  0.7546771E-02  0.1315019E+00
         21   -1    0    0  504  502  0.00000000000E+00  0.00000000000E+00  0.47487961288E+03  0.47487961288E+03  0.00000000000E+00 0.  1.
          2   -1    0    0  503    0 -0.00000000000E+00 -0.00000000000E+00 -0.26386815912E+03  0.26386815912E+03  0.00000000000E+00 0. -1.
         21    1    1    2  503  502  0.31396994286E+02 -0.56496352042E+02  0.27757005651E+02  0.70342450959E+02  0.00000000000E+00 0.  1.
         21    1    1    2  504  505 -0.10644016703E+02  0.58694882084E+02  0.16605635029E+03  0.17644573032E+03  0.00000000000E+00 0.  1.
         21    1    1    2  505  501  0.61561038241E+02  0.21991573059E+02  0.24235186836E+03  0.25101358292E+03  0.00000000000E+00 0.  1.
          2    1    1    2  501    0 -0.82314015824E+02 -0.24190103100E+02 -0.22515377053E+03  0.24094600780E+03  0.00000000000E+00 0. -1.
<scales pt_clust_3="55.59780" pt_clust_4="59.65219" pt_clust_5="14000.00000" pt_clust_6="85.15815"></scales>
<clustering>
<clus scale="   59.652">  1  4  2 -1</clus>
<clus scale="   55.598">  1  3  2 -1</clus>
<clus scale="   85.158">  2  6  1 -1</clus>
<clus scale="   59.652">  1  3  2 -1</clus>
</clustering>
</event>
<event>
 6    0  0.6851428E+002  0.8047762E+02  0.7546771E-02  0.1327701E+00
         21   -1    0    0  503  502  0.00000000000E+00  0.00000000000E+00  0.31534013969E+03  0.31534013969E+03  0.00000000000E+00 0. -1.
          2   -1    0    0  505    0 -0.00000000000E+00 -0.00000000000E+00 -0.69161860809E+03  0.69161860809E+03  0.00000000000E+00 0. -1.
         21    1    1    2  503  501  0.77722996524E+02 -0.32979388413E+02  0.28423841370E+03  0.29651303525E+03  0.00000000000E+00 0. -1.
         21    1    1    2  504  502 -0.20293223733E+02  0.51267498322E+02 -0.51583308473E+02  0.75505026499E+02  0.00000000000E+00 0.  1.
         21    1    1    2  505  504 -0.54327681655E+02 -0.58444639553E+02 -0.11853483398E+03  0.14289079660E+03  0.00000000000E+00 0. -1.
          2    1    1    2  501    0 -0.31020911360E+01  0.40156529644E+02 -0.49039873965E+03  0.49204988944E+03  0.00000000000E+00 0. -1.
<scales pt_clust_3="80.47762" pt_clust_4="14000.00000" pt_clust_5="64.92766" pt_clust_6="40.27617"></scales>
<clustering>
<clus scale="   40.276">  2  6  1 -1</clus>
<clus scale="   64.928">  2  5  1 -1</clus>
<clus scale="   80.478">  1  3  2 -1</clus>
<clus scale="   80.478">  1  3  2 -1</clus>
</clustering>
</event>
<event>
 6    0  0.6851428E+002  0.9314482E+02  0.7546771E-02  0.1295410E+00
         21   -1    0    0  504  502  0.00000000000E+00  0.00000000000E+00  0.17399660841E+02  0.17399660841E+02  0.00000000000E+00 0.  1.
         -2   -1    0    0    0  501 -0.00000000000E+00 -0.00000000000E+00 -0.32632398984E+04  0.32632398984E+04  0.00000000000E+00 0.  1.
         21    1    1    2  503  502  0.24655618479E+02  0.38246291802E+02 -0.16486206227E+03  0.17102683396E+03  0.00000000000E+00 0.  1.
         21    1    1    2  504  505  0.57462784857E+02  0.22865803536E+02 -0.78378444796E+02  0.99839857890E+02  0.00000000000E+00 0.  1.
         21    1    1    2  505  501 -0.51681304494E+02 -0.10517027673E+03 -0.10639556407E+04  0.10703893449E+04  0.00000000000E+00 0.  1.
         -2    1    1    2    0  503 -0.30437098842E+02  0.44058181395E+02 -0.19386440898E+04  0.19393835225E+04  0.00000000000E+00 0.  1.
<scales pt_clust_3="45.50471" pt_clust_4="93.14482" pt_clust_5="14000.00000" pt_clust_6="54.01102"></scales>
<clustering>
<clus scale="   45.505">  1  3  2 -1</clus>
<clus scale="   54.011">  2  6  1 -1</clus>
<clus scale="   93.145">  1  4  2 -1</clus>
<clus scale="   45.505">  1  3  2 -1</clus>
</clustering>
</event>
<event>
 6    0  0.6851428E+002  0.1057512E+03  0.7546771E-02  0.1268647E+00
         21   -1    0    0  503  502  0.00000000000E+00  0.00000000000E+00  0.83586553059E+03  0.83586553059E+03  0.00000000000E+00 0.  1.
         -1   -1    0    0    0  501 -0.00000000000E+00 -0.00000000000E+00 -0.54536123660E+03  0.54536123660E+03  0.00000000000E+00 0.  1.
         21    1    1    2  503  501 -0.68361784505E+02  0.62472382471E+02 -0.10479734659E+03  0.13985212192E+03  0.00000000000E+00 0. -1.
         21    1    1    2  504  502  0.20954360892E+02 -0.36789629839E+02  0.77445239113E+03  0.77560883713E+03  0.00000000000E+00 0.  1.
         21    1    1    2  505  504  0.57993567815E+02 -0.10228979010E+03 -0.50211499626E+02  0.12785792804E+03  0.00000000000E+00 0. -1.
         -1    1    1    2    0  505 -0.10586144202E+02  0.76607037471E+02 -0.32893925092E+03  0.33790788010E+03  0.00000000000E+00 0.  1.
<scales pt_clust_3="14000.00000" pt_clust_4="42.33866" pt_clust_5="105.75124" pt_clust_6="74.44626"></scales>
<clustering>
<clus scale="   42.339">  1  4  2 -1</clus>
<clus scale="   74.446">  2  6  1 -1</clus>
<clus scale="  105.751">  2  5  1 -1</clus>
<clus scale="   42.339">  1  3  2 -1</clus>
</clustering>
</event>
<event>
 6    0  0.6851428E+002  0.1993527E+03  0.7546771E-02  0.1150286E+00
         -2   -1    0    0    0  501 -0.00000000000E+00  0.00000000000E+00  0.71077788351E+03  0.71077788351E+03  0.00000000000E+00 0. -1.
         21   -1    0    0  503  502  0.00000000000E+00 -0.00000000000E+00 -0.47120755402E+03  0.47120755402E+03  0.00000000000E+00 0.  1.
         21    1    1    2  503  505  0.29231409236E+02 -0.62918643881E+02 -0.37424103594E+02  0.78827625637E+02  0.00000000000E+00 0.  1.
         21    1    1    2  504  502  0.14814531466E+03  0.13246585109E+03 -0.30313812527E+03  0.36247339068E+03  0.00000000000E+00 0.  1.
         21    1    1    2  505  501 -0.23770044390E+03 -0.45697023504E+02  0.10961475608E+03  0.26571622784E+03  0.00000000000E+00 0. -1.
         -2    1    1    2    0  504  0.60323719998E+02 -0.23850183705E+02  0.47051780227E+03  0.47496819337E+03  0.00000000000E+00 0. -1.
<scales pt_clust_3="73.57165" pt_clust_4="199.35267" pt_clust_5="14000.00000" pt_clust_6="64.86742"></scales>
<clustering>
<clus scale="   64.867">  1  6  2 -1</clus>
<clus scale="   73.572">  2  3  1 -1</clus>
<clus scale="  199.353">  2  4  1 -1</clus>
<clus scale="   73.572">  2  3  1 -1</clus>
</clustering>
</event>
<event>
 6    0  0.6851428E+002  0.1284128E+03  0.7546771E-02  0.1229830E+00
          2   -1    0    0  505    0 -0.00000000000E+00  0.00000000000E+00  0.80755104733E+03  0.80755104733E+03  0.00000000000E+00 0.  1.
         21   -1    0    0  503  502  0.00000000000E+00 -0.00000000000E+00 -0.11634839987E+04  0.11634839987E+04  0.00000000000E+00 0.  1.
         21    1    1    2  503  501  0.59244294644E+02  0.14029345642E+02 -0.14060004182E+02  0.62485139870E+02  0.00000000000E+00 0.  1.
         21    1    1    2  504  502  0.98179981201E+02  0.23680777563E+02 -0.59441073216E+03  0.60292968615E+03  0.00000000000E+00 0.  1.
         21    1    1    2  505  504 -0.12200628818E+03  0.85869606299E+02 -0.51048675249E+03  0.53184193903E+03  0.00000000000E+00 0.  1.
          2    1    1    2  501    0 -0.35417987667E+02 -0.12357972950E+03  0.76302453745E+03  0.77377828100E+03  0.00000000000E+00 0.  1.
<scales pt_clust_3="60.88275" pt_clust_4="116.23015" pt_clust_5="14000.00000" pt_clust_6="128.41279"></scales>
<clustering>
<clus scale="   60.883">  2  3  1 -1</clus>
<clus scale="  128.413">  1  6  2 -1</clus>
<clus scale="  116.230">  2  4  1 -1</clus>
<clus scale="   60.883">  2  3  1 -1</clus>
</clustering>
</event>
<event>
 6    0  0.6851428E+002  0.1316790E+03  0.7546771E-02  0.1224985E+00
          2   -1    0    0  503    0 -0.00000000000E+00  0.00000000000E+00  0.24322928179E+04  0.24322928179E+04  0.00000000000E+00 0. -1.
         21   -1    0    0  501  502  0.00000000000E+00 -0.00000000000E+00 -0.98279542970E+02  0.98279542970E+02  0.00000000000E+00 0. -1.
         21    1    1    2  503  504  0.30899558162E+02 -0.72819552894E+01  0.12940494260E+03  0.13324206820E+03  0.00000000000E+00 0.  1.
         21    1    1    2  504  505 -0.39662714018E+02 -0.10174885083E+03  0.10540136835E+03  0.15177420063E+03  0.00000000000E+00 0. -1.
         21    1    1    2  505  502  0.44671760728E+02 -0.34560631992E+02 -0.59350588106E+02  0.81929822402E+02  0.00000000000E+00 0. -1.
          2    1    1    2  501    0 -0.35908604872E+02  0.14359143811E+03  0.21585575521E+04  0.21636262696E+04  0.00000000000E+00 0. -1.
<scales pt_clust_3="31.74602" pt_clust_4="14000.00000" pt_clust_5="56.62193" pt_clust_6="131.67900"></scales>
<clustering>
<clus scale="   31.746">  1  3  2 -1</clus>
<clus scale="   56.622">  2  5  1 -1</clus>
<clus scale="  131.679">  1  6  2 -1</clus>
<clus scale="   56.622">  2  3  1 -1</clus>
</clustering>
</event>
<event>
 6    0  0.6851428E+002  0.1820456E+03  0.7546771E-02  0.1165838E+00
          2   -1    0    0  504    0 -0.00000000000E+00  0.00000000000E+00  0.22654310940E+04  0.22654310940E+04  0.00000000000E+00 0. -1.
         21   -1    0    0  505  502  0.00000000000E+00 -0.00000000000E+00 -0.31179863582E+02  0.31179863582E+02  0.00000000000E+00 0. -1.
         21    1    1    2  503  501  0.84752295321E+02 -0.79991411303E+02  0.81229790167E+03  0.82061529263E+03  0.00000000000E+00 0. -1.
         21    1    1    2  504  502 -0.74453254926E+02  0.13961513527E+03  0.26630625067E+03  0.30976554410E+03  0.00000000000E+00 0. -1.
         21    1    1    2  505  503 -0.55248641203E+02 -0.32029277443E+02  0.21957527802E+03  0.22867354391E+03  0.00000000000E+00 0. -1.
          2    1    1    2  501    0  0.44949600807E+02 -0.27594446525E+02  0.93607180005E+03  0.93755657693E+03  0.00000000000E+00 0. -1.
<scales pt_clust_3="51.99914" pt_clust_4="164.82172" pt_clust_5="63.86147" pt_clust_6="51.99914"></scales>
<clustering>
<clus scale="   51.999">  3  6 -1 -1</clus>
<clus scale="   63.861">  2  5  1 -1</clus>
<clus scale="  164.822">  2  4  1 -1</clus>
<clus scale="   63.861">  2  3  1 -1</clus>
</clustering>
</event>
<event>
 6    0  0.6851428E+002  0.1273185E+03  0.7546771E-02  0.1231490E+00
         21   -1    0    0  501  502  0.00000000000E+00  0.00000000000E+00  0.13081893489E+03  0.13081893489E+03  0.00000000000E+00 0. -1.
          1   -1    0    0  504    0 -0.00000000000E+00 -0.00000000000E+00 -0.10758429456E+04  0.10758429456E+04  0.00000000000E+00 0. -1.
         21    1    1    2  503  505  0.85676872447E+02  0.37596675902E+02 -0.24246514348E+03  0.25989109703E+03  0.00000000000E+00 0. -1.
         21    1    1    2  504  503  0.91674057073E+01  0.50195554193E+02 -0.45987612064E+03  0.46269826164E+03  0.00000000000E+00 0. -1.
         21    1    1    2  505  502  0.63933616187E+01  0.78809284918E+02  0.76529175556E+02  0.11003859856E+03  0.00000000000E+00 0. -1.
          1    1    1    2  501    0 -0.10123763977E+03 -0.16660151501E+03 -0.31921192218E+03  0.37403392329E+03  0.00000000000E+00 0. -1.
<scales pt_clust_3="14000.00000" pt_clust_4="51.02583" pt_clust_5="80.45252" pt_clust_6="127.31852"></scales>
<clustering>
<clus scale="   51.026">  2  4  1 -1</clus>
<clus scale="   80.453">  1  5  2 -1</clus>
<clus scale="  127.319">  1  6  2 -1</clus>
<clus scale="   80.453">  1  3  2 -1</clus>
</clustering>
</event>
<event>
 6    0  0.6851428E+002  0.8657704E+02  0.7546771E-02  0.1311359E+00
         21   -1    0    0  503  502  0.00000000000E+00  0.00000000000E+00  0.77765019814E+03  0.77765019814E+03  0.00000000000E+00 0.  1.
          1   -1    0    0  505    0 -0.00000000000E+00 -0.00000000000E+00 -0.58409481056E+03  0.58409481056E+03  0.00000000000E+00 0.  1.
         21    1    1    2  503  504 -0.27127064815E+02 -0.30595373226E+02  0.19607975065E+03  0.20029783604E+03  0.00000000000E+00 0.  1.
         21    1    1    2  504  501 -0.19045287151E+02 -0.48732702327E+02  0.81365268476E+02  0.96736271134E+02  0.00000000000E+00 0.  1.
         21    1    1    2  505  502  0.10848857903E+03  0.19015284945E+02  0.48087448570E+03  0.49332709619E+03  0.00000000000E+00 0.  1.
          1    1    1    2  501    0 -0.62316227064E+02  0.60312790609E+02 -0.56476411725E+03  0.57138380534E+03  0.00000000000E+00 0.  1.
<scales pt_clust_3="40.88954" pt_clust_4="58.25931" pt_clust_5="86.57704" pt_clust_6="14000.00000"></scales>
<clustering>
<clus scale="   40.890">  1  3  2 -1</clus>
<clus scale="   58.259">  1  4  2 -1</clus>
<clus scale="   86.577">  1  5  2 -1</clus>
<clus scale="   40.890">  1  3  2 -1</clus>
</clustering>
</event>
<event>
 6    0  0.6851428E+002  0.7718486E+02  0.7546771E-02  0.1337236E+00
         21   -1    0    0  505  502  0.00000000000E+00  0.00000000000E+00  0.23272747673E+03  0.23272747673E+03  0.00000000000E+00 0.  1.
          2   -1    0    0  504    0 -0.00000000000E+00 -0.00000000000E+00 -0.14654025963E+04  0.14654025963E+04  0.00000000000E+00 0. -1.
         21    1    1    2  503  501 -0.21341513164E+02  0.85853017476E+02 -0.25772368548E+03  0.27248430937E+03  0.00000000000E+00 0.  1.
         21    1    1    2  504  502 -0.30820499889E+02  0.23566585351E+02 -0.34615548146E+02  0.51995416451E+02  0.00000000000E+00 0.  1.
         21    1    1    2  505  503 -0.19509557626E+02 -0.86250994066E+02  0.20634654161E+03  0.22449666379E+03  0.00000000000E+00 0.  1.
          2    1    1    2  501    0  0.71671570679E+02 -0.23168608760E+02 -0.11466824276E+04  0.11491536834E+04  0.00000000000E+00 0. -1.
<scales pt_clust_3="14000.00000" pt_clust_4="38.79803" pt_clust_5="77.18486" pt_clust_6="75.12161"></scales>
<clustering>
<clus scale="   38.798">  1  4  2 -1</clus>
<clus scale="   75.122">  2  6  1 -1</clus>
<clus scale="   77.185">  1  5  2 -1</clus>
<clus scale="   38.798">  1  3  2 -1</clus>
</clustering>
</event>
<event>
 6    0  0.6851428E+002  0.1502316E+03  0.7546771E-02  0.1200189E+00
         21   -1    0    0  501  502  0.00000000000E+00  0.00000000000E+00  0.19052969745E+04  0.19052969745E+04  0.00000000000E+00 0. -1.
          2   -1    0    0  504    0 -0.00000000000E+00 -0.00000000000E+00 -0.56051091976E+03  0.56051091976E+03  0.00000000000E+00 0. -1.
         21    1    1    2  503  505 -0.58598196627E+02 -0.22929694115E+02  0.61797399209E+03  0.62116936050E+03  0.00000000000E+00 0. -1.
         21    1    1    2  504  503  0.18422472010E+03  0.71343281874E+01  0.62712363535E+03  0.65366176280E+03  0.00000000000E+00 0. -1.
         21    1    1    2  505  502  0.15806079924E+02 -0.33829359289E+02  0.63448009470E+03  0.63557788530E+03  0.00000000000E+00 0. -1.
          2    1    1    2  501    0 -0.14143260340E+03  0.49624725217E+02 -0.53479166741E+03  0.55539888565E+03  0.00000000000E+00 0. -1.
<scales pt_clust_3="64.37693" pt_clust_4="14000.00000" pt_clust_5="37.33976" pt_clust_6="150.23159"></scales>
<clustering>
<clus scale="   37.340">  1  5  2 -1</clus>
<clus scale="   64.377">  1  3  2 -1</clus>
<clus scale="  150.232">  2  6  1 -1</clus>
<clus scale="   37.340">  1  3  2 -1</clus>
</clustering>
</event>
<event>
 6    0  0.6851428E+002  0.1773195E+03  0.7546771E-02  0.1170423E+00
          1   -1    0    0  504    0 -0.00000000000E+00  0.00000000000E+00  0.91433950885E+03  0.91433950885E+03  0.00000000000E+00 0.  1.
         21   -1    0    0  501  502  0.00000000000E+00 -0.00000000000E+00 -0.19204147175E+03  0.19204147175E+03  0.00000000000E+00 0. -1.
         21    1    1    2  503  502  0.68846695727E+02 -0.11423786070E+03 -0.65292949567E+02  0.14850362148E+03  0.00000000000E+00 0. -1.
         21    1    1    2  504  505 -0.89270258946E+02  0.11834619678E+02  0.11749404450E+02  0.90814568546E+02  0.00000000000E+00 0. -1.
         21    1    1    2  505  503 -0.90737954740E+02 -0.33339325740E+02  0.30525214713E+02  0.10137394046E+03  0.00000000000E+00 0. -1.
          1    1    1    2  501    0  0.11116151796E+03  0.13574256676E+03  0.74531636751E+03  0.76568885011E+03  0.00000000000E+00 0.  1.
<scales pt_clust_3="133.37974" pt_clust_4="46.12509" pt_clust_5="46.12509" pt_clust_6="170.75814"></scales>
<clustering>
<clus scale="   46.125">  4  5 -1 -1</clus>
<clus scale="  133.380">  2  3  1 -1</clus>
<clus scale="  170.758">  1  6  2 -1</clus>
<clus scale="  133.380">  2  3  1 -1</clus>
</clustering>
</event>
<event>
 6    0  0.6851428E+002  0.9767985E+02  0.7546771E-02  0.1285252E+00
          2   -1    0    0  505    0 -0.00000000000E+00  0.00000000000E+00  0.26826660112E+04  0.26826660112E+04  0.00000000000E+00 0. -1.
         21   -1    0    0  503  502  0.00000000000E+00 -0.00000000000E+00 -0.17486352517E+03  0.17486352517E+03  0.00000000000E+00 0. -1.
         21    1    1    2  503  501 -0.28312404624E+02  0.38674405873E+02 -0.12279423842E+02  0.49478138355E+02  0.00000000000E+00 0. -1.
         21    1    1    2  504  502  0.57007189300E+02  0.12657343876E+02 -0.70251411854E+02  0.91352552528E+02  0.00000000000E+00 0. -1.
         21    1    1    2  505  504  0.44098896454E+02 -0.11618319910E+03 -0.26058235896E+00  0.12427114036E+03  0.00000000000E+00 0. -1.
          2    1    1    2  501    0 -0.72793681130E+02  0.64851449354E+02  0.25905939041E+04  0.25924277052E+04  0.00000000000E+00 0. -1.
<scales pt_clust_3="47.93018" pt_clust_4="53.58558" pt_clust_5="14000.00000" pt_clust_6="97.67985"></scales>
<clustering>
<clus scale="   47.930">  2  3  1 -1</clus>
<clus scale="   53.586">  2  4  1 -1</clus>
<clus scale="   97.680">  1  6  2 -1</clus>
<clus scale="   47.930">  2  3  1 -1</clus>
</clustering>
</event>
<event>
 6    0  0.6851428E+002  0.1520650E+03  0.7546771E-02  0.1197958E+00
         21   -1    0    0  504  502  0.00000000000E+00  0.00000000000E+00  0.10805173530E+04  0.10805173530E+04  0.00000000000E+00 0. -1.
          3   -1    0    0  503    0 -0.00000000000E+00 -0.00000000000E+00 -0.32092134862E+03  0.32092134862E+03  0.00000000000E+00 0.  1.
         21    1    1    2  503  505 -0.72545374506E+02 -0.70243736198E+02  0.39458896688E+03  0.40730512717E+03  0.00000000000E+00 0. -1.
         21    1    1    2  504  501  0.96978985809E+02  0.58037099837E+02  0.28324732629E+03  0.30496274608E+03  0.00000000000E+00 0. -1.
         21    1    1    2  505  502 -0.68354909882E+02 -0.44172042553E+01  0.38057380948E+03  0.38668893165E+03  0.00000000000E+00 0. -1.
          3    1    1    2  501    0  0.43921298578E+02  0.16623840617E+02 -0.29881409825E+03  0.30248189674E+03  0.00000000000E+00 0.  1.
<scales pt_clust_3="53.89293" pt_clust_4="137.84652" pt_clust_5="53.89293" pt_clust_6="46.96203"></scales>
<clustering>
<clus scale="   46.962">  2  6  1 -1</clus>
<clus scale="   53.893">  3  5 -1 -1</clus>
<clus scale="  137.847">  2  4  1 -1</clus>
<clus scale="  152.065">  1  3  2 -1</clus>
</clustering>
</event>
<event>
 6    0  0.6851428E+002  0.1459404E+03  0.7546771E-02  0.1205552E+00
         21   -1    0    0  501  502  0.00000000000E+00  0.00000000000E+00  0.65794749169E+02  0.65794749169E+02  0.00000000000E+00 0.  1.
          1   -1    0    0  504    0 -0.00000000000E+00 -0.00000000000E+00 -0.10939478223E+04  0.10939478223E+04  0.00000000000E+00 0.  1.
         21    1    1    2  503  502 -0.13107915859E+03 -0.55131034548E+02 -0.47831025609E+02  0.15002994300E+03  0.00000000000E+00 0.  1.
         21    1    1    2  504  505  0.60142265714E+02  0.49458032598E+02 -0.26996971936E+03  0.28097480044E+03  0.00000000000E+00 0. -1.
         21    1    1    2  505  503  0.24069321694E+02  0.65177467516E+02 -0.17896045221E+03  0.19197468056E+03  0.00000000000E+00 0.  1.
          1    1    1    2  501    0  0.46867571182E+02 -0.59504465566E+02 -0.53139187597E+03  0.53676314748E+03  0.00000000000E+00 0.  1.
<scales pt_clust_3="139.24290" pt_clust_4="41.28318" pt_clust_5="41.28318" pt_clust_6="75.74530"></scales>
<clustering>
<clus scale="   41.283">  4  5 -1 -1</clus>
<clus scale="   75.745">  2  6  1 -1</clus>
<clus scale="  139.243">  1  3  2 -1</clus>
<clus scale="  139.243">  1  3  2 -1</clus>
</clustering>
</event>
<event>
 6    0  0.6851428E+002  0.1088709E+03  0.7546771E-02  0.1262675E+00
          2   -1    0    0  504    0 -0.00000000000E+00  0.00000000000E+00  0.24650019619E+04  0.24650019619E+04  0.00000000000E+00 0. -1.
         21   -1    0    0  505  502  0.00000000000E+00 -0.00000000000E+00 -0.95736033759E+02  0.95736033759E+02  0.00000000000E+00 0. -1.
         21    1    1    2  503  501 -0.35384355951E+02  0.31281720316E+02  0.99176423778E+02  0.10984790260E+03  0.00000000000E+00 0. -1.
         21    1    1    2  504  502  0.81765732558E+02  0.65441746779E+02 -0.11608306802E+02  0.10537082153E+03  0.00000000000E+00 0. -1.
         21    1    1    2  505  503  0.31354891250E+02 -0.20353437494E+02 -0.19212463498E+02  0.42029874813E+02  0.00000000000E+00 0. -1.
          2    1    1    2  501    0 -0.77736267856E+02 -0.76370029602E+02  0.23009102747E+04  0.23034893967E+04  0.00000000000E+00 0. -1.
<scales pt_clust_3="44.20190" pt_clust_4="108.87093" pt_clust_5="37.38170" pt_clust_6="14000.00000"></scales>
<clustering>
<clus scale="   37.382">  2  5  1 -1</clus>
<clus scale="   44.202">  2  3  1 -1</clus>
<clus scale="  108.871">  2  4  1 -1</clus>
<clus scale="   37.382">  2  3  1 -1</clus>
</clustering>
</event>
<event>
 6    0  0.6851428E+002  0.7909075E+02  0.7546771E-02  0.1331652E+00
          1   -1    0    0  503    0 -0.00000000000E+00  0.00000000000E+00  0.41652789516E+03  0.41652789516E+03  0.00000000000E+00 0. -1.
         21   -1    0    0  504  502  0.00000000000E+00 -0.00000000000E+00 -0.30663100055E+04  0.30663100055E+04  0.00000000000E+00 0. -1.
         21    1    1    2  503  505 -0.10298193431E+03 -0.54971159512E+02 -0.10951955814E+03  0.16006761317E+03  0.00000000000E+00 0.  1.
         21    1    1    2  504  501  0.43904675139E+02  0.25187917273E+02 -0.28146471042E+04  0.28151021958E+04  0.00000000000E+00 0. -1.
         21    1    1    2  505  502 -0.63534577559E+01  0.41663603361E+02 -0.10988333218E+03  0.11768844022E+03  0.00000000000E+00 0.  1.
          1    1    1    2  501    0  0.65430716926E+02 -0.11880361123E+02  0.38426788421E+03  0.38997965143E+03  0.00000000000E+00 0. -1.
<scales pt_clust_3="79.09075" pt_clust_4="14000.00000" pt_clust_5="42.14525" pt_clust_6="66.48730"></scales>
<clustering>
<clus scale="   42.145">  2  5  1 -1</clus>
<clus scale="   66.487">  1  6  2 -1</clus>
<clus scale="   79.091">  1  3  2 -1</clus>
<clus scale="   42.145">  2  3  1 -1</clus>
</clustering>
</event>
<event>
 6    0  0.6851428E+002  0.7632607E+02  0.7546771E-02  0.1339813E+00
         21   -1    0    0  503  502  0.00000000000E+00  0.00000000000E+00  0.20457774847E+02  0.20457774847E+02  0.00000000000E+00 0. -1.
          2   -1    0    0  502    0 -0.00000000000E+00 -0.00000000000E+00 -0.11871246655E+04  0.11871246655E+04  0.00000000000E+00 0.  1.
         21    1    1    2  503  505 -0.19255058523E+02  0.76232492139E+02 -0.22855565926E+03  0.24170196423E+03  0.00000000000E+00 0. -1.
         21    1    1    2  504  501  0.69830257630E+02 -0.36067258016E+02 -0.28577173008E+03  0.29638251246E+03  0.00000000000E+00 0. -1.
         21    1    1    2  505  504 -0.57862055520E+02 -0.72591379356E+02 -0.26602855248E+03  0.28176003365E+03  0.00000000000E+00 0. -1.
          2    1    1    2  501    0  0.72868564139E+01  0.32426145233E+02 -0.38631094880E+03  0.38773792996E+03  0.00000000000E+00 0.  1.
<scales pt_clust_3="14000.00000" pt_clust_4="76.43683" pt_clust_5="76.32607" pt_clust_6="33.23482"></scales>
<clustering>
<clus scale="   33.235">  2  6  1 -1</clus>
<clus scale="   76.437">  2  4  1 -1</clus>
<clus scale="   76.326">  2  5  1 -1</clus>
<clus scale="   76.326">  1  3  2 -1</clus>
</clustering>
</event>
<event>
 6    0  0.6851428E+002  0.1260548E+03  0.7546771E-02  0.1233430E+00
         21   -1    0    0  503  502  0.00000000000E+00  0.00000000000E+00  0.12427903348E+03  0.12427903348E+03  0.00000000000E+00 0.  1.
          2   -1    0    0  505    0 -0.00000000000E+00 -0.00000000000E+00 -0.12576104989E+04  0.12576104989E+04  0.00000000000E+00 0. -1.
         21    1    1    2  503  504  0.59985357329E+02  0.44564648071E+02  0.86890830204E+02  0.11460483116E+03  0.00000000000E+00 0.  1.
         21    1    1    2  504  501 -0.12213209644E+03  0.54467882132E+02 -0.42847393174E+03  0.44885733741E+03  0.00000000000E+00 0. -1.
         21    1    1    2  505  502 -0.44257554971E+02 -0.23670304849E+02 -0.77205781372E+02  0.92085542736E+02  0.00000000000E+00 0. -1.
          2    1    1    2  501    0  0.10640429409E+03 -0.75362225355E+02 -0.71454258247E+03  0.72634182103E+03  0.00000000000E+00 0. -1.
<scales pt_clust_3="74.14144" pt_clust_4="126.05475" pt_clust_5="50.18978" pt_clust_6="14000.00000"></scales>
<clustering>
<clus scale="   50.190">  2  5  1 -1</clus>
<clus scale="   74.141">  1  3  2 -1</clus>
<clus scale="  126.055">  1  4  2 -1</clus>
<clus scale="   74.141">  1  3  2 -1</clus>
</clustering>
</event>
<event>
 6    0  0.6851428E+002  0.1538381E+03  0.7546771E-02  0.1195835E+00
          2   -1    0    0  503    0 -0.00000000000E+00  0.00000000000E+00  0.12515713829E+04  0.12515713829E+04  0.00000000000E+00 0. -1.
         21   -1    0    0  505  502  0.00000000000E+00 -0.00000000000E+00 -0.85455358554E+02  0.85455358554E+02  0.00000000000E+00 0.  1.
         21    1    1    2  503  504 -0.89168528247E+02  0.33984423603E+02  0.14621234267E+02  0.96538841763E+02  0.00000000000E+00 0.  1.
         21    1    1    2  504  502 -0.16909461857E+02  0.50657154676E+02  0.12051411196E+02  0.54747728099E+02  0.00000000000E+00 0. -1.
         21    1    1    2  505  501  0.13836210070E+03 -0.78904161300E+02  0.25479068556E+03  0.30048000105E+03  0.00000000000E+00 0.  1.
          2    1    1    2  501    0 -0.32284110600E+02 -0.57374169797E+01  0.88465269328E+03  0.88526017051E+03  0.00000000000E+00 0. -1.
<scales pt_clust_3="45.08669" pt_clust_4="45.08669" pt_clust_5="141.09111" pt_clust_6="32.78996"></scales>
<clustering>
<clus scale="   32.790">  1  6  2 -1</clus>
<clus scale="   45.087">  3  4 -1 -1</clus>
<clus scale="  141.091">  1  5  2 -1</clus>
<clus scale="  153.838">  2  3  1 -1</clus>
</clustering>
</event>
<event>
 6    0  0.6851428E+002  0.1129823E+03  0.7546771E-02  0.1255145E+00
         -3   -1    0    0    0  501 -0.00000000000E+00  0.00000000000E+00  0.30995805831E+03  0.30995805831E+03  0.00000000000E+00 0. -1.
         21   -1    0    0  504  502  0.00000000000E+00 -0.00000000000E+00 -0.17069861772E+04  0.17069861772E+04  0.00000000000E+00 0.  1.
         21    1    1    2  503  502  0.77963238728E+02 -0.89671049081E+02 -0.13827994001E+04  0.13878952931E+04  0.00000000000E+00 0.  1.
         21    1    1    2  504  505  0.36584826110E+02  0.30521158136E+02 -0.21038322469E+03  0.21571066692E+03  0.00000000000E+00 0.  1.
         21    1    1    2  505  501 -0.13312072987E+01  0.62897414872E+02 -0.87575916912E+02  0.10783041377E+03  0.00000000000E+00 0.  1.
         -3    1    1    2    0  503 -0.11321685754E+03 -0.37475239272E+01  0.28373042280E+03  0.30550786175E+03  0.00000000000E+00 0. -1.
<scales pt_clust_3="14000.00000" pt_clust_4="47.64442" pt_clust_5="64.90217" pt_clust_6="112.98227"></scales>
<clustering>
<clus scale="   47.644">  2  4  1 -1</clus>
<clus scale="   64.902">  2  5  1 -1</clus>
<clus scale="  112.982">  1  6  2 -1</clus>
<clus scale="   47.644">  2  3  1 -1</clus>
</clustering>
</event>
<event>
 6    0  0.6851428E+002  0.1786505E+03  0.7546771E-02  0.1169116E+00
         21   -1    0    0  505  502  0.00000000000E+00  0.00000000000E+00  0.12215177456E+03  0.12215177456E+03  0.00000000000E+00 0. -1.
          2   -1    0    0  504    0 -0.00000000000E+00 -0.00000000000E+00 -0.73903111728E+03  0.73903111728E+03  0.00000000000E+00 0. -1.
         21    1    1    2  503  502 -0.37202280125E+02 -0.51631099693E+02  0.39760296116E+02  0.75037732170E+02  0.00000000000E+00 0. -1.
         21    1    1    2  504  503 -0.37923241502E+02 -0.85353708239E+02 -0.12940128950E+02  0.94291434889E+02  0.00000000000E+00 0. -1.
         21    1    1    2  505  501 -0.35683439657E+02  0.78079671501E+01 -0.13282649469E+02  0.38867737182E+02  0.00000000000E+00 0.  1.
          2    1    1    2  501    0  0.11080896128E+03  0.12917684078E+03 -0.63041686042E+03  0.65298598759E+03  0.00000000000E+00 0. -1.
<scales pt_clust_3="51.77495" pt_clust_4="51.77495" pt_clust_5="36.52769" pt_clust_6="168.43878"></scales>
<clustering>
<clus scale="   36.528">  1  5  2 -1</clus>
<clus scale="   51.775">  3  4 -1 -1</clus>
<clus scale="  168.439">  2  6  1 -1</clus>
<clus scale="   36.528">  1  3  2 -1</clus>
</clustering>
</event>
<event>
 6    0  0.6851428E+002  0.2271696E+03  0.7546771E-02  0.1128648E+00
          1   -1    0    0  505    0 -0.00000000000E+00  0.00000000000E+00  0.25546891917E+04  0.25546891917E+04  0.00000000000E+00 0. -1.
         21   -1    0    0  503  502  0.00000000000E+00 -0.00000000000E+00 -0.11616000808E+03  0.11616000808E+03  0.00000000000E+00 0.  1.
         21    1    1    2  503  504 -0.18660602765E+02  0.72758012543E+02 -0.23019371460E+02  0.78561045991E+02  0.00000000000E+00 0.  1.
         21    1    1    2  504  501 -0.98953690163E+02 -0.13562682588E+02  0.26962774463E+02  0.10345419451E+03  0.00000000000E+00 0.  1.
         21    1    1    2  505  502 -0.13327422437E+03 -0.11049181113E+03  0.37081262632E+03  0.40923399546E+03  0.00000000000E+00 0.  1.
          1    1    1    2  501    0  0.25088851729E+03  0.51296481171E+02  0.20637731543E+04  0.20795999638E+04  0.00000000000E+00 0. -1.
<scales pt_clust_3="75.11289" pt_clust_4="113.63560" pt_clust_5="227.16955" pt_clust_6="14000.00000"></scales>
<clustering>
<clus scale="   75.113">  2  3  1 -1</clus>
<clus scale="  113.636">  2  4  1 -1</clus>
<clus scale="  227.170">  2  5  1 -1</clus>
<clus scale="   75.113">  2  3  1 -1</clus>
</clustering>
</event>
<event>
 6    0  0.6851428E+002  0.7195016E+02  0.7546771E-02  0.1353584E+00
         21   -1    0    0  505  502  0.00000000000E+00  0.00000000000E+00  0.23611102723E+04  0.23611102723E+04  0.00000000000E+00 0.  1.
          2   -1    0    0  503    0 -0.00000000000E+00 -0.00000000000E+00 -0.26199565664E+03  0.26199565664E+03  0.00000000000E+00 0.  1.
         21    1    1    2  503  504 -0.69537460064E+02  0.80336364500E+02 -0.49721242172E+02  0.11730981091E+03  0.00000000000E+00 0.  1.
         21    1    1    2  504  502  0.71329698700E+02  0.10122378560E+02  0.23121144051E+04  0.23132365661E+04  0.00000000000E+00 0.  1.
         21    1    1    2  505  501  0.12467758441E+02 -0.48558258231E+02 -0.49401999575E+02  0.70383996797E+02  0.00000000000E+00 0. -1.
          2    1    1    2  501    0 -0.14259997077E+02 -0.41900484829E+02 -0.11387654771E+03  0.12217555510E+03  0.00000000000E+00 0.  1.
<scales pt_clust_3="14000.00000" pt_clust_4="71.95016" pt_clust_5="66.31218" pt_clust_6="44.26057"></scales>
<clustering>
<clus scale="   44.261">  2  6  1 -1</clus>
<clus scale="   66.312">  2  5  1 -1</clus>
<clus scale="   71.950">  1  4  2 -1</clus>
<clus scale="   71.950">  1  3  2 -1</clus>
</clustering>
</event>
<event>
 6    0  0.6851428E+002  0.1469933E+03  0.7546771E-02  0.1204217E+00
         21   -1    0    0  504  502  0.00000000000E+00  0.00000000000E+00  0.36214082516E+03  0.36214082516E+03  0.00000000000E+00 0. -1.
          2   -1    0    0  505    0 -0.00000000000E+00 -0.00000000000E+00 -0.17860723755E+04  0.17860723755E+04  0.00000000000E+00 0. -1.
         21    1    1    2  503  502 -0.64720234145E+02  0.28396748663E+01  0.12817417361E+03  0.14361542829E+03  0.00000000000E+00 0. -1.
         21    1    1    2  504  501  0.17577054762E+03 -0.29493058452E+02 -0.11866147888E+02  0.17862231488E+03  0.00000000000E+00 0.  1.
         21    1    1    2  505  503 -0.64850861245E+02 -0.42718743799E+02  0.13119964586E+03  0.15245941214E+03  0.00000000000E+00 0. -1.
          2    1    1    2  501    0 -0.46199452227E+02  0.69372127384E+02 -0.16714392220E+04  0.16735160454E+04  0.00000000000E+00 0. -1.
<scales pt_clust_3="40.91309" pt_clust_4="140.00184" pt_clust_5="40.91309" pt_clust_6="83.34795"></scales>
<clustering>
<clus scale="   40.913">  3  5 -1 -1</clus>
<clus scale="   83.348">  2  6  1 -1</clus>
<clus scale="  140.002">  2  4  1 -1</clus>
<clus scale="  146.993">  1  3  2 -1</clus>
</clustering>
</event>
<event>
 6    0  0.6851428E+002  0.1208392E+03  0.7546771E-02  0.1241719E+00
         21   -1    0    0  504  502  0.00000000000E+00  0.00000000000E+00  0.99591841770E+03  0.99591841770E+03  0.00000000000E+00 0. -1.
         -4   -1    0    0    0  501 -0.00000000000E+00 -0.00000000000E+00 -0.60642340609E+02  0.60642340609E+02  0.00000000000E+00 0. -1.
         21    1    1    2  503  505  0.60732184756E+02 -0.66730236495E+02  0.30729429288E+03  0.32026724023E+03  0.00000000000E+00 0. -1.
         21    1    1    2  504  503  0.32898153780E+02 -0.91943748214E+01  0.37369134171E+03  0.37524930902E+03  0.00000000000E+00 0. -1.
         21    1    1    2  505  501  0.54278447511E+02 -0.40765821154E+02  0.65407664469E+02  0.94266455380E+02  0.00000000000E+00 0. -1.
         -4    1    1    2    0  502 -0.14790878605E+03  0.11669043247E+03  0.18888277803E+03  0.26677775367E+03  0.00000000000E+00 0. -1.
<scales pt_clust_3="14000.00000" pt_clust_4="34.15882" pt_clust_5="71.98868" pt_clust_6="120.83925"></scales>
<clustering>
<clus scale="   34.159">  1  4  2 -1</clus>
<clus scale="   71.989">  2  5  1 -1</clus>
<clus scale="  120.839">  2  6  1 -1</clus>
<clus scale="   34.159">  1  3  2 -1</clus>
</clustering>
</event>
<event>
 6    0  0.6851428E+002  0.1213742E+03  0.7546771E-02  0.1240847E+00
          3   -1    0    0  503    0 -0.00000000000E+00  0.00000000000E+00  0.93955164708E+03  0.93955164708E+03  0.00000000000E+00 0.  1.
         21   -1    0    0  501  502  0.00000000000E+00 -0.00000000000E+00 -0.13544608532E+03  0.13544608532E+03  0.00000000000E+00 0.  1.
         21    1    1    2  503  504  0.16018447363E+02  0.29117246400E+02  0.61298222439E+02  0.69727159472E+02  0.00000000000E+00 0.  1.
         21    1    1    2  504  505  0.71932202127E+02 -0.86557362067E+01  0.37384746177E+02  0.81527803349E+02  0.00000000000E+00 0.  1.
         21    1    1    2  505  502  0.67399941819E+02 -0.64375712690E+01 -0.90306729800E+02  0.11286939323E+03  0.00000000000E+00 0.  1.
          3    1    1    2  501    0 -0.15535059131E+03 -0.14023938924E+02  0.79572932294E+03  0.81087337635E+03  0.00000000000E+00 0.  1.
<scales pt_clust_3="33.23258" pt_clust_4="14000.00000" pt_clust_5="67.87790" pt_clust_6="121.37422"></scales>
<clustering>
<clus scale="   33.233">  1  3  2 -1</clus>
<clus scale="   67.878">  2  5  1 -1</clus>
<clus scale="  121.374">  1  6  2 -1</clus>
<clus scale="   67.878">  2  3  1 -1</clus>
</clustering>
</event>
<event>
 6    0  0.6851428E+002  0.8526727E+02  0.7546771E-02  0.1314735E+00
         21   -1    0    0  504  502  0.00000000000E+00  0.00000000000E+00  0.11364423832E+03  0.11364423832E+03  0.00000000000E+00 0. -1.
          2   -1    0    0  503    0 -0.00000000000E+00 -0.00000000000E+00 -0.29148957094E+03  0.29148957094E+03  0.00000000000E+00 0. -1.
         21    1    1    2  503  505 -0.30436863052E+02 -0.28816529558E+02 -0.52951088513E+02  0.67532309178E+02  0.00000000000E+00 0. -1.
         21    1    1    2  504  501  0.51299487042E+02 -0.43666170858E+02 -0.67169955480E+02  0.95132406504E+02  0.00000000000E+00 0. -1.
         21    1    1    2  505  502 -0.73999014722E+02  0.52270192233E+02  0.62102730397E+02  0.10983977558E+03  0.00000000000E+00 0. -1.
          2    1    1    2  501    0  0.53136390732E+02  0.20212508183E+02 -0.11982701903E+03  0.13262931801E+03  0.00000000000E+00 0. -1.
<scales pt_clust_3="41.91414" pt_clust_4="14000.00000" pt_clust_5="85.26727" pt_clust_6="36.79632"></scales>
<clustering>
<clus scale="   41.914">  2  3  1 -1</clus>
<clus scale="   36.796">  2  6  1 -1</clus>
<clus scale="   85.267">  1  5  2 -1</clus>
<clus scale="   85.267">  1  3  2 -1</clus>
</clustering>
</event>
<event>
 6    0  0.6851428E+002  0.7989671E+02  0.7546771E-02  0.1329345E+00
         21   -1    0    0  503  502  0.00000000000E+00  0.00000000000E+00  0.39237580414E+02  0.39237580414E+02  0.00000000000E+00 0.  1.
          2   -1    0    0  505    0 -0.00000000000E+00 -0.00000000000E+00 -0.11145877514E+04  0.11145877514E+04  0.00000000000E+00 0.  1.
         21    1    1    2  503  501 -0.54750114428E+02  0.35373306041E+01 -0.58896649178E+02  0.80491633243E+02  0.00000000000E+00 0. -1.
         21    1    1    2  504  502  0.13679071364E+02  0.32709643889E+02 -0.12611886494E+02  0.37631070642E+02  0.00000000000E+00 0.  1.
         21    1    1    2  505  504  0.87726133615E+02  0.29110407601E+02 -0.13769100172E+03  0.16583757808E+03  0.00000000000E+00 0.  1.
          2    1    1    2  501    0 -0.46655090551E+02 -0.65357382095E+02 -0.86615063358E+03  0.86986504983E+03  0.00000000000E+00 0.  1.
<scales pt_clust_3="51.99630" pt_clust_4="35.45473" pt_clust_5="79.89671" pt_clust_6="14000.00000"></scales>
<clustering>
<clus scale="   35.455">  1  4  2 -1</clus>
<clus scale="   51.996">  1  3  2 -1</clus>
<clus scale="   79.897">  1  5  2 -1</clus>
<clus scale="   35.455">  1  3  2 -1</clus>
</clustering>
</event>
<event>
 6    0  0.6851428E+002  0.1223649E+03  0.7546771E-02  0.1239246E+00
          2   -1    0    0  505    0 -0.00000000000E+00  0.00000000000E+00  0.31681453776E+03  0.31681453776E+03  0.00000000000E+00 0. -1.
         21   -1    0    0  504  502  0.00000000000E+00 -0.00000000000E+00 -0.79510383124E+03  0.79510383124E+03  0.00000000000E+00 0.  1.
         21    1    1    2  503  501 -0.77308479112E+02  0.83212259749E+02  0.15442890571E+02  0.11462706480E+03  0.00000000000E+00 0.  1.
         21    1    1    2  504  503  0.16262974923E+02 -0.45534099009E+02 -0.91148282383E+02  0.10317871829E+03  0.00000000000E+00 0.  1.
         21    1    1    2  505  502  0.34174731718E+02 -0.73737946151E+02 -0.64371430505E+03  0.64882455527E+03  0.00000000000E+00 0.  1.
          2    1    1    2  501    0  0.26870772471E+02  0.36059785411E+02  0.24113040339E+03  0.24528803065E+03  0.00000000000E+00 0. -1.
<scales pt_clust_3="14000.00000" pt_clust_4="46.41553" pt_clust_5="122.36489" pt_clust_6="44.97051"></scales>
<clustering>
<clus scale="   44.971">  1  6  2 -1</clus>
<clus scale="   46.416">  2  4  1 -1</clus>
<clus scale="  122.365">  2  5  1 -1</clus>
<clus scale="   46.416">  2  3  1 -1</clus>
</clustering>
</event>
<event>
 6    0  0.6851428E+002  0.9163506E+02  0.7546771E-02  0.1298940E+00
         -4   -1    0    0    0  501 -0.00000000000E+00  0.00000000000E+00  0.70405536265E+02  0.70405536265E+02  0.00000000000E+00 0.  1.
         21   -1    0    0  504  502  0.00000000000E+00 -0.00000000000E+00 -0.20965247265E+04  0.20965247265E+04  0.00000000000E+00 0. -1.
         21    1    1    2  503  505  0.24713270217E+02 -0.66989923343E+02 -0.53653362739E+02  0.89314494275E+02  0.00000000000E+00 0.  1.
         21    1    1    2  504  503 -0.53983471164E+02 -0.73198026599E+02 -0.18507912165E+04  0.18530246338E+04  0.00000000000E+00 0. -1.
         21    1    1    2  505  501  0.35407418989E+02 -0.22057854267E+00  0.45342638361E+01  0.35697248113E+02  0.00000000000E+00 0.  1.
         -4    1    1    2    0  502 -0.61372180414E+01  0.14040852848E+03 -0.12620887485E+03  0.18889388664E+03  0.00000000000E+00 0.  1.
<scales pt_clust_3="76.72665" pt_clust_4="91.63506" pt_clust_5="35.40811" pt_clust_6="14000.00000"></scales>
<clustering>
<clus scale="   35.408">  1  5  2 -1</clus>
<clus scale="   76.727">  1  3  2 -1</clus>
<clus scale="   91.635">  2  4  1 -1</clus>
<clus scale="   91.635">  2  3  1 -1</clus>
</clustering>
</event>
<event>
 6    0  0.6851428E+002  0.1052583E+03  0.7546771E-02  0.1269611E+00
         21   -1    0    0  504  502  0.00000000000E+00  0.00000000000E+00  0.75725377315E+03  0.75725377315E+03  0.00000000000E+00 0. -1.
         -4   -1    0    0    0  501 -0.00000000000E+00 -0.00000000000E+00 -0.26158637699E+03  0.26158637699E+03  0.00000000000E+00 0. -1.
         21    1    1    2  503  501  0.23177127688E+02  0.41842129336E+02 -0.78196874480E+02  0.91666210862E+02  0.00000000000E+00 0.  1.
         21    1    1    2  504  503 -0.61743292288E+02  0.10959212746E+03 -0.87455481136E+02  0.15320290377E+03  0.00000000000E+00 0. -1.
         21    1    1    2  505  502  0.22487463723E+02 -0.10232365196E+03  0.70102046172E+03  0.70880568813E+03  0.00000000000E+00 0. -1.
         -4    1    1    2    0  505  0.16078700877E+02 -0.49110604831E+02 -0.39700709938E+02  0.65165347374E+02  0.00000000000E+00 0. -1.
<scales pt_clust_3="47.83245" pt_clust_4="105.25833" pt_clust_5="14000.00000" pt_clust_6="43.28194"></scales>
<clustering>
<clus scale="   47.832">  2  3  1 -1</clus>
<clus scale="   43.282">  2  6  1 -1</clus>
<clus scale="  105.258">  2  4  1 -1</clus>
<clus scale="  105.258">  1  3  2 -1</clus>
</clustering>
</event>
<event>
 6    0  0.6851428E+002  0.1044375E+03  0.7546771E-02  0.1271232E+00
         21   -1    0    0  504  502  0.00000000000E+00  0.00000000000E+00  0.27809635960E+03  0.27809635960E+03  0.00000000000E+00 0.  1.
          2   -1    0    0  505    0 -0.00000000000E+00 -0.00000000000E+00 -0.30744054994E+03  0.30744054994E+03  0.00000000000E+00 0.  1.
         21    1    1    2  503  502  0.32804433542E+02 -0.46025488644E+02  0.10592628519E+03  0.12006187721E+03  0.00000000000E+00 0.  1.
         21    1    1    2  504  501 -0.49968617658E+02  0.30511784809E+01  0.61767597133E+02  0.79507285807E+02  0.00000000000E+00 0. -1.
         21    1    1    2  505  503 -0.68242144377E+01 -0.50601566074E+02  0.78691682942E+02  0.93805486812E+02  0.00000000000E+00 0.  1.
          2    1    1    2  501    0  0.23988398554E+02  0.93575876237E+02 -0.27572975560E+03  0.29216225971E+03  0.00000000000E+00 0.  1.
<scales pt_clust_3="38.53450" pt_clust_4="50.06169" pt_clust_5="38.53450" pt_clust_6="96.24702"></scales>
<clustering>
<clus scale="   38.535">  3  5 -1 -1</clus>
<clus scale="   50.062">  1  4  2 -1</clus>
<clus scale="   96.247">  2  6  1 -1</clus>
<clus scale="   50.062">  1  3  2 -1</clus>
</clustering>
</event>
<event>
 6    0  0.6851428E+002  0.1031185E+03  0.7546771E-02  0.1273872E+00
         21   -1    0    0  503  502  0.00000000000E+00  0.00000000000E+00  0.20950798176E+04  0.20950798176E+04  0.00000000000E+00 0. -1.
          2   -1    0    0  505    0 -0.00000000000E+00 -0.00000000000E+00 -0.10151034093E+04  0.10151034093E+04  0.00000000000E+00 0. -1.
         21    1    1    2  503  504  0.47303661009E+02  0.79785809761E+02  0.20642494717E+04  0.20663323288E+04  0.00000000000E+00 0. -1.
         21    1    1    2  504  501 -0.19433289655E+02 -0.46188759809E+02 -0.24753286799E+03  0.25255410315E+03  0.00000000000E+00 0.  1.
         21    1    1    2  505  502 -0.29250808642E+02  0.50812428662E+02 -0.97669838735E+01  0.59438259452E+02  0.00000000000E+00 0.  1.
          2    1    1    2  501    0  0.13804372882E+01 -0.84409478613E+02 -0.72697321154E+03  0.73185853550E+03  0.00000000000E+00 0. -1.
<scales pt_clust_3="92.78517" pt_clust_4="34.66418" pt_clust_5="58.63031" pt_clust_6="34.66418"></scales>
<clustering>
<clus scale="   34.664">  4  6 -1 -1</clus>
<clus scale="   58.630">  2  5  1 -1</clus>
<clus scale="   92.785">  1  3  2 -1</clus>
<clus scale="   92.785">  1  3  2 -1</clus>
</clustering>
</event>
<event>
 6    0  0.6851428E+002  0.9040627E+02  0.7546771E-02  0.1301871E+00
          1   -1    0    0  505    0 -0.00000000000E+00  0.00000000000E+00  0.10106045840E+04  0.10106045840E+04  0.00000000000E+00 0.  1.
         21   -1    0    0  504  502  0.00000000000E+00 -0.00000000000E+00 -0.69065743672E+02  0.69065743672E+02  0.00000000000E+00 0. -1.
         21    1    1    2  503  502 -0.35416065627E+02  0.15230798676E+02  0.23047461118E+02  0.44916148508E+02  0.00000000000E+00 0. -1.
         21    1    1    2  504  501  0.46866804496E+02 -0.23314473919E+02  0.36189735622E+02  0.63637716978E+02  0.00000000000E+00 0.  1.
         21    1    1    2  505  503 -0.78814004201E+02 -0.51957422622E+02  0.10867514401E+02  0.95022754606E+02  0.00000000000E+00 0. -1.
          1    1    1    2  501    0  0.67363265331E+02  0.60041097866E+02  0.87143412922E+03  0.87609370762E+03  0.00000000000E+00 0.  1.
<scales pt_clust_3="38.55224" pt_clust_4="43.26091" pt_clust_5="90.40627" pt_clust_6="14000.00000"></scales>
<clustering>
<clus scale="   38.552">  2  3  1 -1</clus>
<clus scale="   43.261">  2  4  1 -1</clus>
<clus scale="   90.406">  2  5  1 -1</clus>
<clus scale="   38.552">  2  3  1 -1</clus>
</clustering>
</event>
<event>
 6    0  0.6851428E+002  0.1021462E+03  0.7546771E-02  0.1275847E+00
          1   -1    0    0  505    0 -0.00000000000E+00  0.00000000000E+00  0.31056072795E+04  0.31056072795E+04  0.00000000000E+00 0. -1.
         21   -1    0    0  503  502  0.00000000000E+00 -0.00000000000E+00 -0.17640330363E+03  0.17640330363E+03  0.00000000000E+00 0.  1.
         21    1    1    2  503  504  0.48816079836E+02 -0.36787055422E+02 -0.87692448684E+02  0.10689369791E+03  0.00000000000E+00 0.  1.
         21    1    1    2  504  501 -0.11267181476E+03 -0.83294822048E+01  0.41689142924E+02  0.12042550707E+03  0.00000000000E+00 0.  1.
         21    1    1    2  505  502 -0.34397137410E+02  0.17892168842E+02 -0.29210441883E+02  0.48544234291E+02  0.00000000000E+00 0.  1.
          1    1    1    2  501    0  0.98252872334E+02  0.27224368784E+02  0.30044177235E+04  0.30061471438E+04  0.00000000000E+00 0. -1.
<scales pt_clust_3="34.37403" pt_clust_4="102.14617" pt_clust_5="38.77232" pt_clust_6="14000.00000"></scales>
<clustering>
<clus scale="   38.772">  2  5  1 -1</clus>
<clus scale="   34.374">  2  3  1 -1</clus>
<clus scale="  102.146">  2  4  1 -1</clus>
<clus scale="   38.772">  2  3  1 -1</clus>
</clustering>
</event>
<event>
 6    0  0.6851428E+002  0.1746083E+03  0.7546771E-02  0.1173126E+00
          1   -1    0    0  505    0 -0.00000000000E+00  0.00000000000E+00  0.11312274971E+04  0.11312274971E+04  0.00000000000E+00 0. -1.
         21   -1    0    0  501  502  0.00000000000E+00 -0.00000000000E+00 -0.53762215988E+02  0.53762215988E+02  0.00000000000E+00 0. -1.
         21    1    1    2  503  504  0.40131403567E+02  0.13490169493E+02  0.82428857825E+02  0.92666233481E+02  0.00000000000E+00 0. -1.
         21    1    1    2  504  502  0.24937482872E+02  0.25517814094E+02 -0.15955275239E+02  0.39084622246E+02  0.00000000000E+00 0. -1.
         21    1    1    2  505  503  0.11139258621E+03 -0.21820932286E+02  0.48743106305E+03  0.50047327859E+03  0.00000000000E+00 0. -1.
          1    1    1    2  501    0 -0.17646147265E+03 -0.17187051301E+02  0.52356063549E+03  0.55276557879E+03  0.00000000000E+00 0. -1.
<scales pt_clust_3="40.72956" pt_clust_4="35.67964" pt_clust_5="40.72956" pt_clust_6="162.61250"></scales>
<clustering>
<clus scale="   35.680">  2  4  1 -1</clus>
<clus scale="   40.730">  3  5 -1 -1</clus>
<clus scale="  162.612">  2  6  1 -1</clus>
<clus scale="   35.680">  2  3  1 -1</clus>
</clustering>
</event>
<event>
 6    0  0.6851428E+002  0.7439617E+02  0.7546771E-02  0.1345751E+00
         21   -1    0    0  503  502  0.00000000000E+00  0.00000000000E+00  0.32645507937E+03  0.32645507937E+03  0.00000000000E+00 0. -1.
          2   -1    0    0  505    0 -0.00000000000E+00 -0.00000000000E+00 -0.75565621193E+03  0.75565621193E+03  0.00000000000E+00 0. -1.
         21    1    1    2  503  501 -0.81874180729E+02 -0.16442030753E+02  0.21664347058E+03  0.23218121197E+03  0.00000000000E+00 0. -1.
         21    1    1    2  504  502  0.38143632637E+02 -0.14237002527E+02  0.19985728845E+02  0.45354804698E+02  0.00000000000E+00 0. -1.
         21    1    1    2  505  504 -0.26261243675E+02  0.55969372032E+02  0.53285738417E+02  0.81618585161E+02  0.00000000000E+00 0. -1.
          2    1    1    2  501    0  0.69991791767E+02 -0.25290338752E+02 -0.71911607040E+03  0.72295668948E+03  0.00000000000E+00 0. -1.
<scales pt_clust_3="74.39617" pt_clust_4="40.71399" pt_clust_5="55.53132" pt_clust_6="14000.00000"></scales>
<clustering>
<clus scale="   40.714">  1  4  2 -1</clus>
<clus scale="   55.531">  1  5  2 -1</clus>
<clus scale="   74.396">  1  3  2 -1</clus>
<clus scale="   40.714">  1  3  2 -1</clus>
</clustering>
</event>
<event>
 6    0  0.6851428E+002  0.9134563E+02  0.7546771E-02  0.1299625E+00
         -2   -1    0    0    0  501 -0.00000000000E+00  0.00000000000E+00  0.64542200615E+02  0.64542200615E+02  0.00000000000E+00 0. -1.
         21   -1    0    0  503  502  0.00000000000E+00 -0.00000000000E+00 -0.57522303865E+03  0.57522303865E+03  0.00000000000E+00 0. -1.
         21    1    1    2  503  501  0.21823813551E+02  0.23128402164E+02 -0.33956261229E+02  0.46521280090E+02  0.00000000000E+00 0.  1.
         21    1    1    2  504  505  0.68792127754E+02 -0.67749592616E+02 -0.90478340280E+02  0.13232042246E+03  0.00000000000E+00 0. -1.
         21    1    1    2  505  502 -0.93863106655E+02  0.98340783051E+01 -0.40865833850E+03  0.41941462720E+03  0.00000000000E+00 0. -1.
         -2    1    1    2    0  504  0.32471653498E+01  0.34787112147E+02  0.22412101970E+02  0.41508909514E+02  0.00000000000E+00 0. -1.
<scales pt_clust_3="31.79940" pt_clust_4="91.34563" pt_clust_5="14000.00000" pt_clust_6="49.85490"></scales>
<clustering>
<clus scale="   31.799">  1  3  2 -1</clus>
<clus scale="   49.855">  1  6  2 -1</clus>
<clus scale="   91.346">  1  4  2 -1</clus>
<clus scale="   91.346">  2  3  1 -1</clus>
</clustering>
</event>
<event>
 6    0  0.6851428E+002  0.9816646E+02  0.7546771E-02  0.1284200E+00
         21   -1    0    0  505  502  0.00000000000E+00  0.00000000000E+00  0.16143254732E+02  0.16143254732E+02  0.00000000000E+00 0. -1.
          1   -1    0    0  503    0 -0.00000000000E+00 -0.00000000000E+00 -0.22623754171E+04  0.22623754171E+04  0.00000000000E+00 0.  1.
         21    1    1    2  503  504  0.20863243899E+02  0.75548721643E+02 -0.33941083479E+03  0.34834264606E+03  0.00000000000E+00 0. -1.
         21    1    1    2  504  502  0.31152364392E+02  0.42550046862E+02 -0.13315495204E+03  0.14321737865E+03  0.00000000000E+00 0. -1.
         21    1    1    2  505  501  0.33410951387E+01 -0.53266356798E+02 -0.12284959453E+03  0.13394211645E+03  0.00000000000E+00 0.  1.
          1    1    1    2  501    0 -0.55356703429E+02 -0.64832411707E+02 -0.16508167810E+04  0.16530165306E+04  0.00000000000E+00 0.  1.
<scales pt_clust_3="33.41921" pt_clust_4="33.41921" pt_clust_5="53.37104" pt_clust_6="89.31272"></scales>
<clustering>
<clus scale="   33.419">  3  4 -1 -1</clus>
<clus scale="   53.371">  1  5  2 -1</clus>
<clus scale="   89.313">  2  6  1 -1</clus>
<clus scale="   53.371">  1  3  2 -1</clus>
</clustering>
</event>
<event>
 6    0  0.6851428E+002  0.1271864E+03  0.7546771E-02  0.1231691E+00
         21   -1    0    0  503  502  0.00000000000E+00  0.00000000000E+00  0.14550806592E+04  0.14550806592E+04  0.00000000000E+00 0. -1.
          2   -1    0    0  504    0 -0.00000000000E+00 -0.00000000000E+00 -0.84284170953E+02  0.84284170953E+02  0.00000000000E+00 0.  1.
         21    1    1    2  503  505  0.15407613379E+02 -0.48279655621E+02  0.59430961735E+03  0.59646646257E+03  0.00000000000E+00 0. -1.
         21    1    1    2  504  502  0.93831457673E+02 -0.55192892310E+02  0.65356237554E+03  0.66256650725E+03  0.00000000000E+00 0. -1.
         21    1    1    2  505  501 -0.61797792261E+02  0.10033948330E+03  0.17425773727E+03  0.21036334766E+03  0.00000000000E+00 0. -1.
          2    1    1    2  501    0 -0.47441278791E+02  0.31330646309E+01 -0.51333241970E+02  0.69968512621E+02  0.00000000000E+00 0.  1.
<scales pt_clust_3="49.92507" pt_clust_4="14000.00000" pt_clust_5="127.18641" pt_clust_6="47.54462"></scales>
<clustering>
<clus scale="   47.545">  2  6  1 -1</clus>
<clus scale="   49.925">  1  3  2 -1</clus>
<clus scale="  127.186">  2  5  1 -1</clus>
<clus scale="   49.925">  1  3  2 -1</clus>
</clustering>
</event>
<event>
 6    0  0.6851428E+002  0.1002399E+03  0.7546771E-02  0.1279792E+00
         21   -1    0    0  503  502  0.00000000000E+00  0.00000000000E+00  0.21908658985E+03  0.21908658985E+03  0.00000000000E+00 0.  1.
         -3   -1    0    0    0  501 -0.00000000000E+00 -0.00000000000E+00 -0.46228977693E+03  0.46228977693E+03  0.00000000000E+00 0. -1.
         21    1    1    2  503  501  0.27454617149E+02  0.51247480278E+02  0.12939201152E+03  0.14185327942E+03  0.00000000000E+00 0.  1.
         21    1    1    2  504  505 -0.78502825422E+02  0.53114235199E+02 -0.70481684618E+00  0.94785612552E+02  0.00000000000E+00 0.  1.
         21    1    1    2  505  502  0.30893218043E+02 -0.16964273827E+01  0.21497009814E+02  0.37674795525E+02  0.00000000000E+00 0. -1.
         -3    1    1    2    0  504  0.20154990230E+02 -0.10266528809E+03 -0.39338739157E+03  0.40706267928E+03  0.00000000000E+00 0. -1.
<scales pt_clust_3="70.42705" pt_clust_4="14000.00000" pt_clust_5="30.93976" pt_clust_6="100.23987"></scales>
<clustering>
<clus scale="   30.940">  1  5  2 -1</clus>
<clus scale="   70.427">  1  3  2 -1</clus>
<clus scale="  100.240">  2  6  1 -1</clus>
<clus scale="   30.940">  1  3  2 -1</clus>
</clustering>
</event>
<event>
 6    0  0.6851428E+002  0.6701888E+02  0.7546771E-02  0.1370534E+00
          2   -1    0    0  505    0 -0.00000000000E+00  0.00000000000E+00  0.32689579874E+04  0.32689579874E+04  0.00000000000E+00 0.  1.
         21   -1    0    0  503  502  0.00000000000E+00 -0.00000000000E+00 -0.36307904652E+02  0.36307904652E+02  0.00000000000E+00 0. -1.
         21    1    1    2  503  501 -0.29656181974E+01  0.38249979939E+02 -0.18340711444E+02  0.42523376547E+02  0.00000000000E+00 0. -1.
         21    1    1    2  504  502  0.60625789287E+02 -0.28195163224E+02  0.36664581527E+03  0.37269237638E+03  0.00000000000E+00 0.  1.
         21    1    1    2  505  504 -0.24616737612E+02 -0.71390464050E+02  0.61256815442E+03  0.61720525431E+03  0.00000000000E+00 0.  1.
          2    1    1    2  501    0 -0.33043433477E+02  0.61335647335E+02  0.22717768245E+04  0.22728448849E+04  0.00000000000E+00 0.  1.
<scales pt_clust_3="38.36477" pt_clust_4="59.71010" pt_clust_5="67.01888" pt_clust_6="14000.00000"></scales>
<clustering>
<clus scale="   38.365">  2  3  1 -1</clus>
<clus scale="   59.710">  2  4  1 -1</clus>
<clus scale="   67.019">  2  5  1 -1</clus>
<clus scale="   38.365">  2  3  1 -1</clus>
</clustering>
</event>
<event>
 6    0  0.6851428E+002  0.8442148E+02  0.7546771E-02  0.1316952E+00
          2   -1    0    0  505    0 -0.00000000000E+00  0.00000000000E+00  0.22498435749E+04  0.22498435749E+04  0.00000000000E+00 0. -1.
         21   -1    0    0  501  502  0.00000000000E+00 -0.00000000000E+00 -0.31676133146E+02  0.31676133146E+02  0.00000000000E+00 0. -1.
         21    1    1    2  503  502 -0.44071071338E+02 -0.72703914459E+02  0.40028587345E+02  0.93970241627E+02  0.00000000000E+00 0. -1.
         21    1    1    2  504  503 -0.33328280899E+02  0.21374478145E+02  0.21682958787E+03  0.22041486520E+03  0.00000000000E+00 0.  1.
         21    1    1    2  505  504 -0.24585339864E+02  0.28026221923E+02  0.87658761943E+03  0.87738005595E+03  0.00000000000E+00 0.  1.
          2    1    1    2  501    0  0.10198469210E+03  0.23303214391E+02  0.10847216471E+04  0.10897545452E+04  0.00000000000E+00 0. -1.
<scales pt_clust_3="14000.00000" pt_clust_4="45.32823" pt_clust_5="37.28147" pt_clust_6="84.42148"></scales>
<clustering>
<clus scale="   37.281">  1  5  2 -1</clus>
<clus scale="   45.328">  1  4  2 -1</clus>
<clus scale="   84.421">  1  6  2 -1</clus>
<clus scale="   84.421">  2  3  1 -1</clus>
</clustering>
</event>
<event>
 6    0  0.6851428E+002  0.1223162E+03  0.7546771E-02  0.1239324E+00
          4   -1    0    0  503    0 -0.00000000000E+00  0.00000000000E+00  0.29053838041E+03  0.29053838041E+03  0.00000000000E+00 0. -1.
         21   -1    0    0  505  502  0.00000000000E+00 -0.00000000000E+00 -0.56653092764E+03  0.56653092764E+03  0.00000000000E+00 0. -1.
         21    1    1    2  503  502  0.34487644425E+02 -0.11744765908E+03 -0.37563968380E+03  0.39508039977E+03  0.00000000000E+00 0. -1.
         21    1    1    2  504  501 -0.39718504183E+02  0.58189990641E+01 -0.41058083933E+02  0.57421133574E+02  0.00000000000E+00 0. -1.
         21    1    1    2  505  504  0.31070745086E+02 -0.79351432227E+01 -0.11592312558E+03  0.12027688366E+03  0.00000000000E+00 0.  1.
          4    1    1    2  501    0 -0.25839885327E+02  0.11956380324E+03  0.25662834608E+03  0.28429089104E+03  0.00000000000E+00 0. -1.
<scales pt_clust_3="14000.00000" pt_clust_4="36.64238" pt_clust_5="32.06802" pt_clust_6="122.31619"></scales>
<clustering>
<clus scale="   32.068">  2  5  1 -1</clus>
<clus scale="   36.642">  2  4  1 -1</clus>
<clus scale="  122.316">  1  6  2 -1</clus>
<clus scale="   32.068">  2  3  1 -1</clus>
</clustering>
</event>
<event>
 6    0  0.6851428E+002  0.1163538E+03  0.7546771E-02  0.1249236E+00
         -1   -1    0    0    0  501 -0.00000000000E+00  0.00000000000E+00  0.76308758659E+03  0.76308758659E+03  0.00000000000E+00 0.  1.
         21   -1    0    0  504  502  0.00000000000E+00 -0.00000000000E+00 -0.42320624845E+03  0.42320624845E+03  0.00000000000E+00 0. -1.
         21    1    1    2  503  505 -0.33977329021E+02 -0.33832533787E+02 -0.14225558333E+02  0.50014655250E+02  0.00000000000E+00 0. -1.
         21    1    1    2  504  501 -0.87498753776E+02 -0.53065787534E+02 -0.18761197133E+03  0.21370601654E+03  0.00000000000E+00 0. -1.
         21    1    1    2  505  502  0.13893898070E+03  0.54307622368E+02 -0.16065103118E+03  0.21923072782E+03  0.00000000000E+00 0. -1.
         -1    1    1    2    0  503 -0.17462897902E+02  0.32590698953E+02  0.70236989898E+03  0.70334243542E+03  0.00000000000E+00 0.  1.
<scales pt_clust_3="46.01256" pt_clust_4="116.35379" pt_clust_5="14000.00000" pt_clust_6="36.97440"></scales>
<clustering>
<clus scale="   36.974">  1  6  2 -1</clus>
<clus scale="   46.013">  1  3  2 -1</clus>
<clus scale="  116.354">  2  4  1 -1</clus>
<clus scale="  116.354">  2  3  1 -1</clus>
</clustering>
</event>
<event>
 6    0  0.6851428E+002  0.4192123E+03  0.7546771E-02  0.1037323E+00
         21   -1    0    0  505  502  0.00000000000E+00  0.00000000000E+00  0.24340732501E+03  0.24340732501E+03  0.00000000000E+00 0.  1.
          1   -1    0    0  503    0 -0.00000000000E+00 -0.00000000000E+00 -0.13806752329E+04  0.13806752329E+04  0.00000000000E+00 0.  1.
         21    1    1    2  503  504 -0.30561387808E+03 -0.10380978605E+03 -0.69430109985E+02  0.33014671637E+03  0.00000000000E+00 0.  1.
         21    1    1    2  504  502 -0.10320607841E+03 -0.11001118447E+03 -0.61245747991E+02  0.16280355333E+03  0.00000000000E+00 0.  1.
         21    1    1    2  505  501  0.25822340943E+03  0.18252177135E+03 -0.42615979350E+03  0.53066533314E+03  0.00000000000E+00 0.  1.
          1    1    1    2  501    0  0.15059654706E+03  0.31299199175E+02 -0.58043225643E+03  0.60046695509E+03  0.00000000000E+00 0.  1.
<scales pt_clust_3="78.15741" pt_clust_4="78.15741" pt_clust_5="403.32162" pt_clust_6="153.81469"></scales>
<clustering>
<clus scale="   78.157">  3  4 -1 -1</clus>
<clus scale="  153.815">  2  6  1 -1</clus>
<clus scale="  403.322">  2  5  1 -1</clus>
<clus scale="  419.212">  1  3  2 -1</clus>
</clustering>
</event>
<event>
 6    0  0.6851428E+002  0.1732205E+03  0.7546771E-02  0.1174530E+00
         21   -1    0    0  503  502  0.00000000000E+00  0.00000000000E+00  0.12552235356E+04  0.12552235356E+04  0.00000000000E+00 0.  1.
         -4   -1    0    0    0  501 -0.00000000000E+00 -0.00000000000E+00 -0.70600921194E+02  0.70600921194E+02  0.00000000000E+00 0. -1.
         21    1    1    2  503  501 -0.76810067180E+02  0.17293388998E+03  0.60105124765E+03  0.63013373106E+03  0.00000000000E+00 0.  1.
         21    1    1    2  504  505  0.39595366901E+02 -0.89750091760E+02  0.35514276776E+03  0.36844166098E+03  0.00000000000E+00 0.  1.
         21    1    1    2  505  502  0.56805198000E+02 -0.18405783346E+02  0.24936050924E+03  0.25641034876E+03  0.00000000000E+00 0.  1.
         -4    1    1    2    0  504 -0.19590497721E+02 -0.64778014871E+02 -0.20931910278E+02  0.70838715964E+02  0.00000000000E+00 0. -1.
<scales pt_clust_3="161.18400" pt_clust_4="49.49864" pt_clust_5="49.49864" pt_clust_6="67.67554"></scales>
<clustering>
<clus scale="   49.499">  4  5 -1 -1</clus>
<clus scale="   67.676">  2  6  1 -1</clus>
<clus scale="  161.184">  2  3  1 -1</clus>
<clus scale="  173.220">  1  3  2 -1</clus>
</clustering>
</event>
<event>
 6    0  0.6851428E+002  0.8570692E+02  0.7546771E-02  0.1313594E+00
         21   -1    0    0  504  502  0.00000000000E+00  0.00000000000E+00  0.37490603046E+02  0.37490603046E+02  0.00000000000E+00 0.  1.
         -2   -1    0    0    0  501 -0.00000000000E+00 -0.00000000000E+00 -0.73738438263E+03  0.73738438263E+03  0.00000000000E+00 0. -1.
         21    1    1    2  503  501  0.11463526047E+02  0.60883265183E+02 -0.16233009265E+03  0.17375052055E+03  0.00000000000E+00 0.  1.
         21    1    1    2  504  503  0.25430856654E+02  0.23172329391E+02 -0.29997297928E+02  0.45645626324E+02  0.00000000000E+00 0.  1.
         21    1    1    2  505  502 -0.56602624556E+02  0.37930836384E+02 -0.58765662762E+02  0.89977822686E+02  0.00000000000E+00 0.  1.
         -2    1    1    2    0  505  0.19708241856E+02 -0.12198643096E+03 -0.44880072624E+03  0.46550101612E+03  0.00000000000E+00 0. -1.
<scales pt_clust_3="85.70692" pt_clust_4="34.40473" pt_clust_5="66.18501" pt_clust_6="14000.00000"></scales>
<clustering>
<clus scale="   34.405">  1  4  2 -1</clus>
<clus scale="   66.185">  1  5  2 -1</clus>
<clus scale="   85.707">  2  3  1 -1</clus>
<clus scale="   34.405">  1  3  2 -1</clus>
</clustering>
</event>
<event>
 6    0  0.6851428E+002  0.1839345E+03  0.7546771E-02  0.1164049E+00
         21   -1    0    0  504  502  0.00000000000E+00  0.00000000000E+00  0.35980205843E+03  0.35980205843E+03  0.00000000000E+00 0.  1.
          2   -1    0    0  502    0 -0.00000000000E+00 -0.00000000000E+00 -0.10972527521E+04  0.10972527521E+04  0.00000000000E+00 0. -1.
         21    1    1    2  503  505  0.13655943569E+03  0.54699637651E+02  0.13699835645E+03  0.20102009726E+03  0.00000000000E+00 0.  1.
         21    1    1    2  504  503 -0.14964093231E+02 -0.58452499518E+02  0.14311216236E+03  0.15531165378E+03  0.00000000000E+00 0.  1.
         21    1    1    2  505  501  0.42778869823E+02 -0.21175211519E+02  0.18659258701E+02  0.51250260697E+02  0.00000000000E+00 0.  1.
          2    1    1    2  501    0 -0.16437421228E+03  0.24928073386E+02 -0.10362204711E+04  0.10494727988E+04  0.00000000000E+00 0. -1.
<scales pt_clust_3="44.58019" pt_clust_4="60.33754" pt_clust_5="44.58019" pt_clust_6="166.45416"></scales>
<clustering>
<clus scale="   44.580">  3  5 -1 -1</clus>
<clus scale="   60.338">  1  4  2 -1</clus>
<clus scale="  166.454">  2  6  1 -1</clus>
<clus scale="   60.338">  1  3  2 -1</clus>
</clustering>
</event>
<event>
 6    0  0.6851428E+002  0.1438980E+03  0.7546771E-02  0.1208178E+00
         21   -1    0    0  504  502  0.00000000000E+00  0.00000000000E+00  0.56060992264E+03  0.56060992264E+03  0.00000000000E+00 0.  1.
         -1   -1    0    0    0  501 -0.00000000000E+00 -0.00000000000E+00 -0.19981602646E+03  0.19981602646E+03  0.00000000000E+00 0. -1.
         21    1    1    2  503  505  0.20674171025E+02  0.19732639048E+03  0.15503994360E+03  0.25179855012E+03  0.00000000000E+00 0. -1.
         21    1    1    2  504  501 -0.95937915956E+02 -0.82784517509E+02  0.12346617755E+03  0.17692161274E+03  0.00000000000E+00 0.  1.
         21    1    1    2  505  502  0.33055549330E+02 -0.26673243469E+02  0.18516849031E+03  0.18997763305E+03  0.00000000000E+00 0.  1.
         -1    1    1    2    0  503  0.42208195602E+02 -0.87868629506E+02 -0.10288071528E+03  0.14172815318E+03  0.00000000000E+00 0. -1.
<scales pt_clust_3="143.89797" pt_clust_4="14000.00000" pt_clust_5="42.47507" pt_clust_6="99.48210"></scales>
<clustering>
<clus scale="   42.475">  1  5  2 -1</clus>
<clus scale="   99.482">  2  6  1 -1</clus>
<clus scale="  143.898">  2  3  1 -1</clus>
<clus scale="   42.475">  1  3  2 -1</clus>
</clustering>
</event>
<event>
 6    0  0.6851428E+002  0.1485761E+03  0.7546771E-02  0.1202234E+00
         -2   -1    0    0    0  501 -0.00000000000E+00  0.00000000000E+00  0.55739499893E+03  0.55739499893E+03  0.00000000000E+00 0.  1.
         21   -1    0    0  504  502  0.00000000000E+00 -0.00000000000E+00 -0.87641550325E+03  0.87641550325E+03  0.00000000000E+00 0. -1.
         21    1    1    2  503  502 -0.40643042521E+01  0.15121653205E+03 -0.41210423828E+03  0.43899073036E+03  0.00000000000E+00 0. -1.
         21    1    1    2  504  505  0.25267013456E+01 -0.35914619415E+02 -0.39703217748E+03  0.39866125227E+03  0.00000000000E+00 0. -1.
         21    1    1    2  505  501 -0.44621650980E+02  0.26010564088E+02 -0.26871882734E+02  0.58221467364E+02  0.00000000000E+00 0. -1.
         -2    1    1    2    0  503  0.46159253886E+02 -0.14131247672E+03  0.51698779417E+03  0.53793705219E+03  0.00000000000E+00 0.  1.
<scales pt_clust_3="14000.00000" pt_clust_4="36.00339" pt_clust_5="49.91732" pt_clust_6="148.57610"></scales>
<clustering>
<clus scale="   36.003">  2  4  1 -1</clus>
<clus scale="   49.917">  2  5  1 -1</clus>
<clus scale="  148.576">  1  6  2 -1</clus>
<clus scale="   36.003">  2  3  1 -1</clus>
</clustering>
</event>
<event>
 6    0  0.6851428E+002  0.8862046E+02  0.7546771E-02  0.1306227E+00
         21   -1    0    0  504  502  0.00000000000E+00  0.00000000000E+00  0.11561985842E+02  0.11561985842E+02  0.00000000000E+00 0.  1.
          2   -1    0    0  503    0 -0.00000000000E+00 -0.00000000000E+00 -0.41362567167E+04  0.41362567167E+04  0.00000000000E+00 0.  1.
         21    1    1    2  503  502 -0.35221883280E+01  0.37818520568E+02 -0.19207738571E+03  0.19579675280E+03  0.00000000000E+00 0.  1.
         21    1    1    2  504  505 -0.71860561909E+02 -0.41948536137E+00 -0.20221576598E+03  0.21460506131E+03  0.00000000000E+00 0.  1.
         21    1    1    2  505  501  0.10662350006E+03 -0.64020080024E+02 -0.11528997554E+04  0.11595882836E+04  0.00000000000E+00 0.  1.
          2    1    1    2  501    0 -0.31240749825E+02  0.26621044818E+02 -0.25775018238E+04  0.25778286049E+04  0.00000000000E+00 0.  1.
<scales pt_clust_3="37.98218" pt_clust_4="88.62046" pt_clust_5="14000.00000" pt_clust_6="41.50528"></scales>
<clustering>
<clus scale="   37.982">  1  3  2 -1</clus>
<clus scale="   41.505">  2  6  1 -1</clus>
<clus scale="   88.620">  1  4  2 -1</clus>
<clus scale="   37.982">  1  3  2 -1</clus>
</clustering>
</event>
<event>
 6    0  0.6851428E+002  0.2429345E+03  0.7546771E-02  0.1117853E+00
         21   -1    0    0  504  502  0.00000000000E+00  0.00000000000E+00  0.77381460391E+03  0.77381460391E+03  0.00000000000E+00 0.  1.
         -1   -1    0    0    0  501 -0.00000000000E+00 -0.00000000000E+00 -0.13897949936E+03  0.13897949936E+03  0.00000000000E+00 0.  1.
         21    1    1    2  503  505 -0.52165863282E+02 -0.53816272305E+02  0.19388037272E+03  0.20786309770E+03  0.00000000000E+00 0.  1.
         21    1    1    2  504  503 -0.70439653433E+01 -0.47199843447E+02  0.23050247696E+03  0.23539081238E+03  0.00000000000E+00 0. -1.
         21    1    1    2  505  501 -0.10610091389E+03 -0.28522535501E+02  0.23370104509E+03  0.25823848945E+03  0.00000000000E+00 0.  1.
         -1    1    1    2    0  502  0.16531074252E+03  0.12953865125E+03 -0.23248790222E+02  0.21130170375E+03  0.00000000000E+00 0.  1.
<scales pt_clust_3="99.24640" pt_clust_4="41.17900" pt_clust_5="99.24640" pt_clust_6="210.01882"></scales>
<clustering>
<clus scale="   41.179">  3  4 -1 -1</clus>
<clus scale="   99.246">  3  5 -1 -1</clus>
<clus scale="  210.019">  2  6  1 -1</clus>
<clus scale="  242.935">  1  3  2 -1</clus>
</clustering>
</event>
<event>
 6    0  0.6851428E+002  0.1116694E+03  0.7546771E-02  0.1257509E+00
          2   -1    0    0  504    0 -0.00000000000E+00  0.00000000000E+00  0.15750798039E+04  0.15750798039E+04  0.00000000000E+00 0.  1.
         21   -1    0    0  501  502  0.00000000000E+00 -0.00000000000E+00 -0.43418788216E+02  0.43418788216E+02  0.00000000000E+00 0. -1.
         21    1    1    2  503  502  0.26178612336E+02 -0.38134610495E+02  0.53425377613E+00  0.46258552599E+02  0.00000000000E+00 0. -1.
         21    1    1    2  504  505  0.37346535162E+02  0.19358048070E+02  0.49599365115E+03  0.49777424571E+03  0.00000000000E+00 0.  1.
         21    1    1    2  505  503 -0.47468658728E+00 -0.61550432282E+02  0.38470608001E+02  0.72585595826E+02  0.00000000000E+00 0. -1.
          2    1    1    2  501    0 -0.63050460911E+02  0.80326994707E+02  0.99666250276E+03  0.10018801980E+04  0.00000000000E+00 0.  1.
<scales pt_clust_3="38.81414" pt_clust_4="42.06540" pt_clust_5="38.81414" pt_clust_6="102.30009"></scales>
<clustering>
<clus scale="   38.814">  3  5 -1 -1</clus>
<clus scale="   42.065">  1  4  2 -1</clus>
<clus scale="  102.300">  1  6  2 -1</clus>
<clus scale="  111.669">  2  3  1 -1</clus>
</clustering>
</event>
<event>
 6    0  0.6851428E+002  0.1076109E+03  0.7546771E-02  0.1265059E+00
         -4   -1    0    0    0  501 -0.00000000000E+00  0.00000000000E+00  0.12991728854E+04  0.12991728854E+04  0.00000000000E+00 0.  1.
         21   -1    0    0  505  502  0.00000000000E+00 -0.00000000000E+00 -0.11661538462E+03  0.11661538462E+03  0.00000000000E+00 0. -1.
         21    1    1    2  503  502  0.44630641280E+02 -0.60643347097E+02  0.11469746832E+03  0.13720429631E+03  0.00000000000E+00 0.  1.
         21    1    1    2  504  503 -0.76352105280E+00 -0.40460831609E+02  0.99927129358E+02  0.10781044959E+03  0.00000000000E+00 0.  1.
         21    1    1    2  505  501 -0.98446727621E+02  0.12762518426E+02 -0.73913243449E+02  0.12376513084E+03  0.00000000000E+00 0. -1.
         -4    1    1    2    0  504  0.54579607393E+02  0.88341660281E+02  0.10418461466E+04  0.10470083933E+04  0.00000000000E+00 0.  1.
<scales pt_clust_3="31.29386" pt_clust_4="31.29386" pt_clust_5="99.27054" pt_clust_6="98.78251"></scales>
<clustering>
<clus scale="   31.294">  3  4 -1 -1</clus>
<clus scale="   99.271">  2  5  1 -1</clus>
<clus scale="   98.783">  1  6  2 -1</clus>
<clus scale="   99.271">  2  3  1 -1</clus>
</clustering>
</event>
<event>
 6    0  0.6851428E+002  0.1330686E+03  0.7546771E-02  0.1222972E+00
         -4   -1    0    0    0  501 -0.00000000000E+00  0.00000000000E+00  0.36309701027E+03  0.36309701027E+03  0.00000000000E+00 0. -1.
         21   -1    0    0  503  502  0.00000000000E+00 -0.00000000000E+00 -0.12401498266E+03  0.12401498266E+03  0.00000000000E+00 0. -1.
         21    1    1    2  503  501 -0.54968143814E+02 -0.11162168159E+03 -0.26270244562E+02  0.12716533484E+03  0.00000000000E+00 0. -1.
         21    1    1    2  504  502  0.24497072413E+02  0.40322469886E+02 -0.86343151035E+01  0.47964148401E+02  0.00000000000E+00 0.  1.
         21    1    1    2  505  504  0.55599130650E+02  0.43818160937E+02  0.54446703835E+02  0.89306988055E+02  0.00000000000E+00 0. -1.
         -4    1    1    2    0  505 -0.25128059249E+02  0.27481050768E+02  0.21953988344E+03  0.22267552163E+03  0.00000000000E+00 0. -1.
<scales pt_clust_3="120.24027" pt_clust_4="46.99665" pt_clust_5="46.99665" pt_clust_6="37.23745"></scales>
<clustering>
<clus scale="   37.237">  1  6  2 -1</clus>
<clus scale="   46.997">  4  5 -1 -1</clus>
<clus scale="  120.240">  2  3  1 -1</clus>
<clus scale="  120.240">  2  3  1 -1</clus>
</clustering>
</event>
<event>
 6    0  0.6851428E+002  0.1112549E+03  0.7546771E-02  0.1258264E+00
         21   -1    0    0  505  502  0.00000000000E+00  0.00000000000E+00  0.51492964690E+03  0.51492964690E+03  0.00000000000E+00 0.  1.
         -1   -1    0    0    0  501 -0.00000000000E+00 -0.00000000000E+00 -0.24392678143E+03  0.24392678143E+03  0.00000000000E+00 0. -1.
         21    1    1    2  503  502 -0.10561410717E+03  0.46957728000E+02  0.53186290036E+02  0.12723265815E+03  0.00000000000E+00 0. -1.
         21    1    1    2  504  501  0.49813838327E+02 -0.71733453874E+02 -0.18268488328E+03  0.20248672419E+03  0.00000000000E+00 0. -1.
         21    1    1    2  505  504  0.76571750352E+02 -0.19945013280E+02  0.34891575466E+03  0.35777540490E+03  0.00000000000E+00 0.  1.
         -1    1    1    2    0  503 -0.20771481511E+02  0.44720739154E+02  0.51585704068E+02  0.71361641089E+02  0.00000000000E+00 0. -1.
<scales pt_clust_3="41.74213" pt_clust_4="91.06803" pt_clust_5="79.12671" pt_clust_6="41.74213"></scales>
<clustering>
<clus scale="   41.742">  3  6 -1 -1</clus>
<clus scale="   79.127">  1  5  2 -1</clus>
<clus scale="   91.068">  2  4  1 -1</clus>
<clus scale="   79.127">  1  3  2 -1</clus>
</clustering>
</event>
<event>
 6    0  0.6851428E+002  0.8697927E+02  0.7546771E-02  0.1310336E+00
         21   -1    0    0  503  502  0.00000000000E+00  0.00000000000E+00  0.26667438366E+03  0.26667438366E+03  0.00000000000E+00 0.  1.
          4   -1    0    0  505    0 -0.00000000000E+00 -0.00000000000E+00 -0.44944994981E+03  0.44944994981E+03  0.00000000000E+00 0.  1.
         21    1    1    2  503  501  0.56246342427E+02  0.24618421378E+02  0.21874870647E+03  0.22720192404E+03  0.00000000000E+00 0.  1.
         21    1    1    2  504  502  0.30013510643E+02 -0.20714466942E+02  0.13624539805E+02  0.38929783543E+02  0.00000000000E+00 0.  1.
         21    1    1    2  505  504  0.43537963061E+02  0.15623759831E+01 -0.96485104996E+02  0.10586487015E+03  0.00000000000E+00 0. -1.
          4    1    1    2  501    0 -0.12979781613E+03 -0.54663304197E+01 -0.31866370742E+03  0.34412775574E+03  0.00000000000E+00 0.  1.
<scales pt_clust_3="14000.00000" pt_clust_4="36.46779" pt_clust_5="44.13869" pt_clust_6="86.97927"></scales>
<clustering>
<clus scale="   36.468">  1  4  2 -1</clus>
<clus scale="   44.139">  2  5  1 -1</clus>
<clus scale="   86.979">  2  6  1 -1</clus>
<clus scale="   36.468">  1  3  2 -1</clus>
</clustering>
</event>
<event>
 6    0  0.6851428E+002  0.9074562E+02  0.7546771E-02  0.1301056E+00
          2   -1    0    0  503    0 -0.00000000000E+00  0.00000000000E+00  0.38639767949E+03  0.38639767949E+03  0.00000000000E+00 0.  1.
         21   -1    0    0  504  502  0.00000000000E+00 -0.00000000000E+00 -0.11317744096E+04  0.11317744096E+04  0.00000000000E+00 0. -1.
         21    1    1    2  503  502 -0.17273772515E+02  0.33836355322E+02 -0.10059255659E+04  0.10066427004E+04  0.00000000000E+00 0. -1.
         21    1    1    2  504  505 -0.97654101047E+01  0.66789615718E+02 -0.75150173538E+02  0.10101368514E+03  0.00000000000E+00 0.  1.
         21    1    1    2  505  501  0.10565129022E+03 -0.55100233932E+02  0.92320491358E+02  0.15073587505E+03  0.00000000000E+00 0.  1.
          2    1    1    2  501    0 -0.78612107597E+02 -0.45525737108E+02  0.24337851805E+03  0.25977982841E+03  0.00000000000E+00 0.  1.
<scales pt_clust_3="37.99055" pt_clust_4="14000.00000" pt_clust_5="90.20504" pt_clust_6="90.74562"></scales>
<clustering>
<clus scale="   37.991">  2  3  1 -1</clus>
<clus scale="   90.746">  1  6  2 -1</clus>
<clus scale="   90.205">  1  5  2 -1</clus>
<clus scale="   37.991">  2  3  1 -1</clus>
</clustering>
</event>
<event>
 6    0  0.6851428E+002  0.8644439E+02  0.7546771E-02  0.1311698E+00
         21   -1    0    0  505  502  0.00000000000E+00  0.00000000000E+00  0.98707083901E+02  0.98707083901E+02  0.00000000000E+00 0.  1.
          2   -1    0    0  503    0 -0.00000000000E+00 -0.00000000000E+00 -0.10300908235E+04  0.10300908235E+04  0.00000000000E+00 0. -1.
         21    1    1    2  503  504 -0.21532601991E+02  0.47688873982E+02 -0.86559867014E+02  0.10114589575E+03  0.00000000000E+00 0.  1.
         21    1    1    2  504  502  0.28640935215E+02  0.47208315253E+02 -0.57584898543E+02  0.79780628847E+02  0.00000000000E+00 0.  1.
         21    1    1    2  505  501  0.49738044201E+02 -0.93205908540E+02  0.44177976484E+02  0.11451160655E+03  0.00000000000E+00 0.  1.
          2    1    1    2  501    0 -0.56846377425E+02 -0.16912806948E+01 -0.83141695053E+03  0.83335977626E+03  0.00000000000E+00 0. -1.
<scales pt_clust_3="52.32477" pt_clust_4="57.47601" pt_clust_5="86.44439" pt_clust_6="14000.00000"></scales>
<clustering>
<clus scale="   52.325">  2  3  1 -1</clus>
<clus scale="   57.476">  1  4  2 -1</clus>
<clus scale="   86.444">  1  5  2 -1</clus>
<clus scale="   57.476">  1  3  2 -1</clus>
</clustering>
</event>
<event>
 6    0  0.6851428E+002  0.1166864E+03  0.7546771E-02  0.1248666E+00
          2   -1    0    0  504    0 -0.00000000000E+00  0.00000000000E+00  0.23358413857E+04  0.23358413857E+04  0.00000000000E+00 0. -1.
         21   -1    0    0  503  502  0.00000000000E+00 -0.00000000000E+00 -0.16885790254E+03  0.16885790254E+03  0.00000000000E+00 0. -1.
         21    1    1    2  503  501 -0.36923745374E+02  0.28801981730E+02 -0.14641892104E+03  0.15372513640E+03  0.00000000000E+00 0. -1.
         21    1    1    2  504  505 -0.29956560589E+02 -0.84396716445E+02  0.17985881367E+03  0.20092136304E+03  0.00000000000E+00 0.  1.
         21    1    1    2  505  502  0.22606824715E+02 -0.34197772171E+02  0.52532729705E+02  0.66635154651E+02  0.00000000000E+00 0.  1.
          2    1    1    2  501    0  0.44273481248E+02  0.89792506887E+02  0.20810108609E+04  0.20834176342E+04  0.00000000000E+00 0. -1.
<scales pt_clust_3="46.82859" pt_clust_4="39.80887" pt_clust_5="39.80887" pt_clust_6="100.76572"></scales>
<clustering>
<clus scale="   39.809">  4  5 -1 -1</clus>
<clus scale="   46.829">  2  3  1 -1</clus>
<clus scale="  100.766">  1  6  2 -1</clus>
<clus scale="   46.829">  2  3  1 -1</clus>
</clustering>
</event>
<event>
 6    0  0.6851428E+002  0.1342699E+03  0.7546771E-02  0.1221254E+00
         21   -1    0    0  504  502  0.00000000000E+00  0.00000000000E+00  0.57798847143E+02  0.57798847143E+02  0.00000000000E+00 0. -1.
          2   -1    0    0  505    0 -0.00000000000E+00 -0.00000000000E+00 -0.12389603866E+04  0.12389603866E+04  0.00000000000E+00 0.  1.
         21    1    1    2  503  501 -0.32550854207E+02 -0.92157659288E+02 -0.30285072300E+03  0.31823128806E+03  0.00000000000E+00 0. -1.
         21    1    1    2  504  503 -0.12414669649E+03  0.13394751020E+02 -0.12491815863E+03  0.17662493584E+03  0.00000000000E+00 0. -1.
         21    1    1    2  505  502  0.15134035499E+03  0.42302177448E+02 -0.23801581766E+03  0.28521028510E+03  0.00000000000E+00 0. -1.
          2    1    1    2  501    0  0.53571957056E+01  0.36460730820E+02 -0.51537684017E+03  0.51669272476E+03  0.00000000000E+00 0.  1.
<scales pt_clust_3="82.25938" pt_clust_4="14000.00000" pt_clust_5="134.26990" pt_clust_6="36.85220"></scales>
<clustering>
<clus scale="   36.852">  2  6  1 -1</clus>
<clus scale="   82.259">  2  3  1 -1</clus>
<clus scale="  134.270">  2  5  1 -1</clus>
<clus scale="  134.270">  1  3  2 -1</clus>
</clustering>
</event>
<event>
 6    0  0.9503036E+002  0.1691264E+03  0.7546771E-02  0.1178762E+00
          2   -1    0    0  503    0 -0.00000000000E+00  0.00000000000E+00  0.12854626453E+04  0.12854626453E+04  0.00000000000E+00 0. -1.
         21   -1    0    0  505  502  0.00000000000E+00 -0.00000000000E+00 -0.12236604315E+04  0.12236604315E+04  0.00000000000E+00 0. -1.
         21    1    1    2  503  504  0.32480112818E+02  0.20142165706E+02 -0.16694566701E+03  0.17126447472E+03  0.00000000000E+00 0.  1.
         21    1    1    2  504  502  0.21520625981E+02  0.13649247913E+03 -0.99243630044E+03  0.10020095532E+04  0.00000000000E+00 0. -1.
         21    1    1    2  505  501  0.50383936015E+01 -0.93139943165E+02 -0.16847271177E+02  0.94785362630E+02  0.00000000000E+00 0.  1.
          2    1    1    2  501    0 -0.59039132400E+02 -0.63494701670E+02  0.12380314524E+04  0.12410636863E+04  0.00000000000E+00 0. -1.
<scales pt_clust_3="37.01987" pt_clust_4="37.01987" pt_clust_5="153.78172" pt_clust_6="86.70177"></scales>
<clustering>
<clus scale="   37.020">  3  4 -1 -1</clus>
<clus scale="   86.702">  1  6  2 -1</clus>
<clus scale="  153.782">  1  5  2 -1</clus>
<clus scale="  169.126">  2  3  1 -1</clus>
</clustering>
</event>
<event>
 6    0  0.6851428E+002  0.1059295E+03  0.7546771E-02  0.1268299E+00
         21   -1    0    0  504  502  0.00000000000E+00  0.00000000000E+00  0.16104438327E+03  0.16104438327E+03  0.00000000000E+00 0. -1.
          2   -1    0    0  505    0 -0.00000000000E+00 -0.00000000000E+00 -0.27721095824E+04  0.27721095824E+04  0.00000000000E+00 0. -1.
         21    1    1    2  503  502  0.38561819294E+02 -0.12017660701E+02  0.86479079185E+02  0.95446682565E+02  0.00000000000E+00 0. -1.
         21    1    1    2  504  501  0.69587868397E+02  0.95293196747E+01  0.40052450361E+02  0.80854672972E+02  0.00000000000E+00 0. -1.
         21    1    1    2  505  503 -0.13813824112E+03  0.12486098456E+02 -0.49587052877E+03  0.51490354205E+03  0.00000000000E+00 0. -1.
          2    1    1    2  501    0  0.29988553432E+02 -0.99977574297E+01 -0.22417261999E+04  0.22419490681E+04  0.00000000000E+00 0. -1.
<scales pt_clust_3="40.65831" pt_clust_4="105.92950" pt_clust_5="14000.00000" pt_clust_6="31.61121"></scales>
<clustering>
<clus scale="   31.611">  2  6  1 -1</clus>
<clus scale="   40.658">  1  3  2 -1</clus>
<clus scale="  105.929">  1  4  2 -1</clus>
<clus scale="   40.658">  1  3  2 -1</clus>
</clustering>
</event>
<event>
 6    0  0.6851428E+002  0.7693238E+02  0.7546771E-02  0.1337989E+00
         21   -1    0    0  501  502  0.00000000000E+00  0.00000000000E+00  0.74429414256E+02  0.74429414256E+02  0.00000000000E+00 0. -1.
          1   -1    0    0  503    0 -0.00000000000E+00 -0.00000000000E+00 -0.10746407031E+04  0.10746407031E+04  0.00000000000E+00 0.  1.
         21    1    1    2  503  504  0.22988489372E+02  0.36744241454E+02 -0.16520320391E+03  0.17079434565E+03  0.00000000000E+00 0. -1.
         21    1    1    2  504  505  0.31841491965E+02 -0.39538252144E+02 -0.10987215535E+03  0.12103323723E+03  0.00000000000E+00 0. -1.
         21    1    1    2  505  502 -0.83160332679E+01  0.76723404560E+02  0.40147221494E+02  0.86991014538E+02  0.00000000000E+00 0. -1.
          1    1    1    2  501    0 -0.46513948069E+02 -0.73929393870E+02 -0.76528315103E+03  0.77025151989E+03  0.00000000000E+00 0.  1.
<scales pt_clust_3="43.34293" pt_clust_4="49.23452" pt_clust_5="76.93238" pt_clust_6="14000.00000"></scales>
<clustering>
<clus scale="   43.343">  2  3  1 -1</clus>
<clus scale="   49.235">  2  4  1 -1</clus>
<clus scale="   76.932">  1  5  2 -1</clus>
<clus scale="   76.932">  1  3  2 -1</clus>
</clustering>
</event>
<event>
 6    0  0.6851428E+002  0.1704952E+03  0.7546771E-02  0.1177332E+00
          1   -1    0    0  502    0 -0.00000000000E+00  0.00000000000E+00  0.32919110893E+04  0.32919110893E+04  0.00000000000E+00 0.  1.
         21   -1    0    0  503  502  0.00000000000E+00 -0.00000000000E+00 -0.13731228341E+02  0.13731228341E+02  0.00000000000E+00 0.  1.
         21    1    1    2  503  505 -0.68441958722E+02  0.17553279966E+02  0.29939640257E+03  0.30762091155E+03  0.00000000000E+00 0. -1.
         21    1    1    2  504  501  0.45341768181E+02 -0.34400875755E+02  0.51781611929E+03  0.52093457323E+03  0.00000000000E+00 0. -1.
         21    1    1    2  505  504 -0.64140291657E+02  0.65019730780E+02  0.29469458187E+03  0.30852299588E+03  0.00000000000E+00 0.  1.
          1    1    1    2  501    0  0.87240482198E+02 -0.48172134991E+02  0.21662727572E+04  0.21685638370E+04  0.00000000000E+00 0.  1.
<scales pt_clust_3="42.11677" pt_clust_4="51.65618" pt_clust_5="163.36835" pt_clust_6="51.65618"></scales>
<clustering>
<clus scale="   42.117">  3  5 -1 -1</clus>
<clus scale="   51.656">  4  6 -1 -1</clus>
<clus scale="  163.368">  2  3  1 -1</clus>
<clus scale="  163.368">  2  3  1 -1</clus>
</clustering>
</event>
<event>
 6    0  0.6851428E+002  0.6496741E+02  0.7546771E-02  0.1378094E+00
         21   -1    0    0  501  502  0.00000000000E+00  0.00000000000E+00  0.16799581180E+03  0.16799581180E+03  0.00000000000E+00 0. -1.
          1   -1    0    0  505    0 -0.00000000000E+00 -0.00000000000E+00 -0.30824279186E+03  0.30824279186E+03  0.00000000000E+00 0.  1.
         21    1    1    2  503  502  0.56536551770E+02  0.31311675785E+02  0.10923474448E+03  0.12692136198E+03  0.00000000000E+00 0. -1.
         21    1    1    2  504  503  0.68958709955E+02  0.10041407831E+01 -0.19876896386E+02  0.71773274882E+02  0.00000000000E+00 0.  1.
         21    1    1    2  505  504 -0.52145436428E+02 -0.14191990993E+02 -0.25213373807E+02  0.59634498131E+02  0.00000000000E+00 0. -1.
          1    1    1    2  501    0 -0.73349825297E+02 -0.18123825576E+02 -0.20439145434E+03  0.21790946866E+03  0.00000000000E+00 0.  1.
<scales pt_clust_3="64.96741" pt_clust_4="59.98659" pt_clust_5="54.04220" pt_clust_6="14000.00000"></scales>
<clustering>
<clus scale="   54.042">  2  5  1 -1</clus>
<clus scale="   59.987">  2  4  1 -1</clus>
<clus scale="   64.967">  1  3  2 -1</clus>
<clus scale="   64.967">  1  3  2 -1</clus>
</clustering>
</event>
<event>
 6    0  0.6851428E+002  0.5373311E+03  0.7546771E-02  0.1004470E+00
         21   -1    0    0  505  502  0.00000000000E+00  0.00000000000E+00  0.22575242954E+03  0.22575242954E+03  0.00000000000E+00 0. -1.
          2   -1    0    0  504    0 -0.00000000000E+00 -0.00000000000E+00 -0.25037173221E+04  0.25037173221E+04  0.00000000000E+00 0. -1.
         21    1    1    2  503  501  0.44480146307E+03 -0.14536333240E+03 -0.14832300338E+04  0.15552974549E+04  0.00000000000E+00 0. -1.
         21    1    1    2  504  502  0.58840262842E+02 -0.59739579149E+02 -0.46139747963E+02  0.95707210754E+02  0.00000000000E+00 0. -1.
         21    1    1    2  505  503 -0.51851301906E+03  0.34144493797E+03 -0.51084421824E+03  0.80399142527E+03  0.00000000000E+00 0. -1.
          2    1    1    2  501    0  0.14871293142E+02 -0.13634202642E+03 -0.23775089253E+03  0.27447366071E+03  0.00000000000E+00 0. -1.
<scales pt_clust_3="14000.00000" pt_clust_4="83.85102" pt_clust_5="537.33106" pt_clust_6="143.23832"></scales>
<clustering>
<clus scale="   83.851">  1  4  2 -1</clus>
<clus scale="  143.238">  2  6  1 -1</clus>
<clus scale="  537.331">  1  5  2 -1</clus>
<clus scale="   83.851">  1  3  2 -1</clus>
</clustering>
</event>
<event>
 6    0  0.6851428E+002  0.1609859E+03  0.7546771E-02  0.1187588E+00
         21   -1    0    0  504  502  0.00000000000E+00  0.00000000000E+00  0.11123113986E+04  0.11123113986E+04  0.00000000000E+00 0.  1.
          1   -1    0    0  503    0 -0.00000000000E+00 -0.00000000000E+00 -0.91704905107E+03  0.91704905107E+03  0.00000000000E+00 0.  1.
         21    1    1    2  503  505 -0.96342659287E+02  0.11569090333E+02  0.77379182526E+03  0.77985225568E+03  0.00000000000E+00 0.  1.
         21    1    1    2  504  501  0.97691017040E+02 -0.24078493389E+02 -0.76796870671E+01  0.10090731513E+03  0.00000000000E+00 0.  1.
         21    1    1    2  505  502 -0.46572690164E+02  0.42511878012E+02  0.28456415973E+03  0.29146704144E+03  0.00000000000E+00 0.  1.
          1    1    1    2  501    0  0.45224332410E+02 -0.30002474956E+02 -0.85541395038E+03  0.85713383742E+03  0.00000000000E+00 0.  1.
<scales pt_clust_3="52.60332" pt_clust_4="147.16776" pt_clust_5="52.60332" pt_clust_6="54.27144"></scales>
<clustering>
<clus scale="   52.603">  3  5 -1 -1</clus>
<clus scale="   54.271">  2  6  1 -1</clus>
<clus scale="  147.168">  2  4  1 -1</clus>
<clus scale="  160.986">  1  3  2 -1</clus>
</clustering>
</event>
<event>
 6    0  0.6851428E+002  0.1068356E+03  0.7546771E-02  0.1266545E+00
         21   -1    0    0  503  502  0.00000000000E+00  0.00000000000E+00  0.10324503043E+03  0.10324503043E+03  0.00000000000E+00 0.  1.
          2   -1    0    0  504    0 -0.00000000000E+00 -0.00000000000E+00 -0.58644738436E+03  0.58644738436E+03  0.00000000000E+00 0.  1.
         21    1    1    2  503  505  0.45950042399E+02  0.44535819742E+02 -0.22544615185E+02  0.67846188622E+02  0.00000000000E+00 0.  1.
         21    1    1    2  504  502 -0.47486030382E+02 -0.27497714193E+02 -0.14558259143E+02  0.56771386073E+02  0.00000000000E+00 0.  1.
         21    1    1    2  505  501  0.60620385582E+02  0.54705691354E+02  0.24605587635E+02  0.85281760990E+02  0.00000000000E+00 0.  1.
          2    1    1    2  501    0 -0.59084397599E+02 -0.71743796904E+02 -0.47070506724E+03  0.47979307910E+03  0.00000000000E+00 0.  1.
<scales pt_clust_3="41.87717" pt_clust_4="54.87301" pt_clust_5="41.87717" pt_clust_6="95.79173"></scales>
<clustering>
<clus scale="   41.877">  3  5 -1 -1</clus>
<clus scale="   54.873">  1  4  2 -1</clus>
<clus scale="   95.792">  2  6  1 -1</clus>
<clus scale="   54.873">  1  3  2 -1</clus>
</clustering>
</event>
<event>
 6    0  0.6851428E+002  0.7120393E+02  0.7546771E-02  0.1356046E+00
          1   -1    0    0  503    0 -0.00000000000E+00  0.00000000000E+00  0.10124896452E+04  0.10124896452E+04  0.00000000000E+00 0. -1.
         21   -1    0    0  504  502  0.00000000000E+00 -0.00000000000E+00 -0.19009496090E+03  0.19009496090E+03  0.00000000000E+00 0. -1.
         21    1    1    2  503  505  0.46550793568E+02  0.88476078473E+02 -0.21770885211E+02  0.10231795681E+03  0.00000000000E+00 0. -1.
         21    1    1    2  504  501  0.40543847802E+02 -0.35474342782E+02 -0.20434100821E+02  0.57617576023E+02  0.00000000000E+00 0. -1.
         21    1    1    2  505  502 -0.55647273215E+02  0.10199582696E+02 -0.78582387868E+02  0.96828932589E+02  0.00000000000E+00 0. -1.
          1    1    1    2  501    0 -0.31447368155E+02 -0.63201318387E+02  0.94318205818E+03  0.94582014066E+03  0.00000000000E+00 0. -1.
<scales pt_clust_3="14000.00000" pt_clust_4="53.87237" pt_clust_5="33.74980" pt_clust_6="71.20393"></scales>
<clustering>
<clus scale="   53.872">  2  4  1 -1</clus>
<clus scale="   33.750">  2  5  1 -1</clus>
<clus scale="   71.204">  1  6  2 -1</clus>
<clus scale="   53.872">  2  3  1 -1</clus>
</clustering>
</event>
<event>
 6    0  0.6851428E+002  0.1023976E+03  0.7546771E-02  0.1275333E+00
          2   -1    0    0  505    0 -0.00000000000E+00  0.00000000000E+00  0.75569556591E+03  0.75569556591E+03  0.00000000000E+00 0. -1.
         21   -1    0    0  503  502  0.00000000000E+00 -0.00000000000E+00 -0.16002151913E+03  0.16002151913E+03  0.00000000000E+00 0. -1.
         21    1    1    2  503  501  0.76473639178E+00 -0.30963394074E+02 -0.18250976055E+02  0.35950169976E+02  0.00000000000E+00 0.  1.
         21    1    1    2  504  502 -0.58771000485E+02 -0.21888240818E+02 -0.13071315258E+01  0.62728256607E+02  0.00000000000E+00 0. -1.
         21    1    1    2  505  504 -0.37460925966E+02  0.93161120616E+02 -0.71031430287E+02  0.12299503834E+03  0.00000000000E+00 0. -1.
          2    1    1    2  501    0  0.95467190059E+02 -0.40309485724E+02  0.68626358464E+03  0.69404362012E+03  0.00000000000E+00 0. -1.
<scales pt_clust_3="30.97284" pt_clust_4="65.52585" pt_clust_5="102.39764" pt_clust_6="14000.00000"></scales>
<clustering>
<clus scale="   30.973">  2  3  1 -1</clus>
<clus scale="   65.526">  2  4  1 -1</clus>
<clus scale="  102.398">  2  5  1 -1</clus>
<clus scale="   30.973">  2  3  1 -1</clus>
</clustering>
</event>
<event>
 6    0  0.6851428E+002  0.9747732E+02  0.7546771E-02  0.1285692E+00
          2   -1    0    0  503    0 -0.00000000000E+00  0.00000000000E+00  0.13687046254E+04  0.13687046254E+04  0.00000000000E+00 0.  1.
         21   -1    0    0  505  502  0.00000000000E+00 -0.00000000000E+00 -0.26395963490E+03  0.26395963490E+03  0.00000000000E+00 0.  1.
         21    1    1    2  503  504  0.45374855711E+02 -0.50356070981E+01  0.78172150092E+02  0.90526901636E+02  0.00000000000E+00 0. -1.
         21    1    1    2  504  502 -0.93869381727E+02  0.51298797071E+02 -0.21238636391E+03  0.23780453104E+03  0.00000000000E+00 0.  1.
         21    1    1    2  505  501  0.30677671305E+02 -0.70708797465E+02  0.13198354866E+02  0.78198785968E+02  0.00000000000E+00 0. -1.
          2    1    1    2  501    0  0.17816854711E+02  0.24445607493E+02  0.12257608495E+04  0.12261340417E+04  0.00000000000E+00 0.  1.
<scales pt_clust_3="56.68831" pt_clust_4="97.47732" pt_clust_5="14000.00000" pt_clust_6="30.24943"></scales>
<clustering>
<clus scale="   30.249">  1  6  2 -1</clus>
<clus scale="   56.688">  1  3  2 -1</clus>
<clus scale="   97.477">  2  4  1 -1</clus>
<clus scale="   97.477">  2  3  1 -1</clus>
</clustering>
</event>
<event>
 6    0  0.6851428E+002  0.2051619E+03  0.7546771E-02  0.1145456E+00
         21   -1    0    0  504  502  0.00000000000E+00  0.00000000000E+00  0.69731588458E+03  0.69731588458E+03  0.00000000000E+00 0. -1.
          2   -1    0    0  505    0 -0.00000000000E+00 -0.00000000000E+00 -0.26165052120E+04  0.26165052120E+04  0.00000000000E+00 0.  1.
         21    1    1    2  503  502  0.10174076551E+02  0.45584723772E+02  0.19181878067E+03  0.19742320910E+03  0.00000000000E+00 0. -1.
         21    1    1    2  504  501 -0.29582395701E+02 -0.13846497533E+02 -0.66975999903E+01  0.33342187615E+02  0.00000000000E+00 0.  1.
         21    1    1    2  505  503  0.19771815567E+03  0.69715655992E+02  0.46263718516E+03  0.50792313086E+03  0.00000000000E+00 0. -1.
          2    1    1    2  501    0 -0.17830983652E+03 -0.10145388223E+03 -0.25669476933E+04  0.25751325690E+04  0.00000000000E+00 0.  1.
<scales pt_clust_3="41.68193" pt_clust_4="32.66257" pt_clust_5="205.16191" pt_clust_6="14000.00000"></scales>
<clustering>
<clus scale="   32.663">  1  4  2 -1</clus>
<clus scale="   41.682">  1  3  2 -1</clus>
<clus scale="  205.162">  1  5  2 -1</clus>
<clus scale="   32.663">  1  3  2 -1</clus>
</clustering>
</event>
<event>
 6    0  0.6851428E+002  0.1655467E+03  0.7546771E-02  0.1182573E+00
         21   -1    0    0  503  502  0.00000000000E+00  0.00000000000E+00  0.40772714989E+03  0.40772714989E+03  0.00000000000E+00 0. -1.
         -2   -1    0    0    0  501 -0.00000000000E+00 -0.00000000000E+00 -0.89472914266E+02  0.89472914266E+02  0.00000000000E+00 0. -1.
         21    1    1    2  503  505 -0.52791145663E+02  0.66381275665E+02  0.62511761186E+02  0.10536175353E+03  0.00000000000E+00 0. -1.
         21    1    1    2  504  502  0.34200042968E+02  0.78785499514E+01  0.10019431066E+03  0.10616314980E+03  0.00000000000E+00 0. -1.
         21    1    1    2  505  501 -0.76710339954E+02  0.24609512822E+02  0.32756128466E+01  0.80627749669E+02  0.00000000000E+00 0. -1.
         -2    1    1    2    0  504  0.95301442649E+02 -0.98869338439E+02  0.15227255094E+03  0.20504741116E+03  0.00000000000E+00 0. -1.
<scales pt_clust_3="70.09953" pt_clust_4="35.09579" pt_clust_5="70.09953" pt_clust_6="148.96832"></scales>
<clustering>
<clus scale="   35.096">  1  4  2 -1</clus>
<clus scale="   70.100">  3  5 -1 -1</clus>
<clus scale="  148.968">  1  6  2 -1</clus>
<clus scale="   35.096">  1  3  2 -1</clus>
</clustering>
</event>
<event>
 6    0  0.6851428E+002  0.1678618E+03  0.7546771E-02  0.1180096E+00
          2   -1    0    0  504    0 -0.00000000000E+00  0.00000000000E+00  0.13940849591E+04  0.13940849591E+04  0.00000000000E+00 0.  1.
         21   -1    0    0  505  502  0.00000000000E+00 -0.00000000000E+00 -0.22069379007E+03  0.22069379007E+03  0.00000000000E+00 0.  1.
         21    1    1    2  503  502  0.61474527217E+02  0.62533535044E-01 -0.54056788760E+01  0.61711771739E+02  0.00000000000E+00 0.  1.
         21    1    1    2  504  503  0.75522942989E+02 -0.44057079018E+02 -0.31689262714E+02  0.92999733875E+02  0.00000000000E+00 0.  1.
         21    1    1    2  505  501 -0.17905232358E+03  0.41122861021E+02 -0.56634727763E+02  0.19224545942E+03  0.00000000000E+00 0.  1.
          2    1    1    2  501    0  0.42054853375E+02  0.28716844617E+01  0.12671208384E+04  0.12678217842E+04  0.00000000000E+00 0.  1.
<scales pt_clust_3="36.12195" pt_clust_4="36.12195" pt_clust_5="162.23994" pt_clust_6="42.15278"></scales>
<clustering>
<clus scale="   36.122">  3  4 -1 -1</clus>
<clus scale="   42.153">  1  6  2 -1</clus>
<clus scale="  162.240">  1  5  2 -1</clus>
<clus scale="  167.862">  2  3  1 -1</clus>
</clustering>
</event>
<event>
 6    0  0.6851428E+002  0.9171357E+02  0.7546771E-02  0.1298754E+00
         21   -1    0    0  505  502  0.00000000000E+00  0.00000000000E+00  0.18929460000E+03  0.18929460000E+03  0.00000000000E+00 0.  1.
          2   -1    0    0  503    0 -0.00000000000E+00 -0.00000000000E+00 -0.74867572926E+03  0.74867572926E+03  0.00000000000E+00 0.  1.
         21    1    1    2  503  504 -0.40581788300E+02  0.41532482043E+01 -0.40297284758E+02  0.57341103679E+02  0.00000000000E+00 0.  1.
         21    1    1    2  504  502 -0.22409257820E+01  0.41633921513E+02  0.51596295609E+02  0.66336889357E+02  0.00000000000E+00 0. -1.
         21    1    1    2  505  501  0.81645027707E+02 -0.87114725014E+02  0.91042144557E+02  0.15014512296E+03  0.00000000000E+00 0.  1.
          2    1    1    2  501    0 -0.38822313625E+02  0.41327555297E+02 -0.66172228467E+03  0.66414721326E+03  0.00000000000E+00 0.  1.
<scales pt_clust_3="40.79376" pt_clust_4="41.76299" pt_clust_5="14000.00000" pt_clust_6="91.71357"></scales>
<clustering>
<clus scale="   40.794">  2  3  1 -1</clus>
<clus scale="   41.763">  1  4  2 -1</clus>
<clus scale="   91.714">  2  6  1 -1</clus>
<clus scale="   41.763">  1  3  2 -1</clus>
</clustering>
</event>
<event>
 6    0  0.6851428E+002  0.6918897E+02  0.7546771E-02  0.1362873E+00
         21   -1    0    0  504  502  0.00000000000E+00  0.00000000000E+00  0.23669124557E+03  0.23669124557E+03  0.00000000000E+00 0.  1.
          2   -1    0    0  505    0 -0.00000000000E+00 -0.00000000000E+00 -0.12056764125E+03  0.12056764125E+03  0.00000000000E+00 0.  1.
         21    1    1    2  503  502 -0.79640761851E+02  0.41995943674E+02  0.58052288410E+02  0.10712786016E+03  0.00000000000E+00 0. -1.
         21    1    1    2  504  501  0.43942694768E+02 -0.44296686310E+02  0.96774559354E+02  0.11514543925E+03  0.00000000000E+00 0.  1.
         21    1    1    2  505  503 -0.30900315933E+02 -0.33252659841E+02  0.81707594039E+01  0.46122990152E+02  0.00000000000E+00 0.  1.
          2    1    1    2  501    0  0.66598383016E+02  0.35553402477E+02 -0.46874002847E+02  0.88862597256E+02  0.00000000000E+00 0.  1.
<scales pt_clust_3="69.18897" pt_clust_4="14000.00000" pt_clust_5="45.39349" pt_clust_6="47.85213"></scales>
<clustering>
<clus scale="   45.393">  2  5  1 -1</clus>
<clus scale="   47.852">  2  6  1 -1</clus>
<clus scale="   69.189">  2  3  1 -1</clus>
<clus scale="   69.189">  1  3  2 -1</clus>
</clustering>
</event>
<event>
 6    0  0.6851428E+002  0.1513799E+03  0.7546771E-02  0.1198788E+00
          1   -1    0    0  505    0 -0.00000000000E+00  0.00000000000E+00  0.21521456792E+04  0.21521456792E+04  0.00000000000E+00 0. -1.
         21   -1    0    0  503  502  0.00000000000E+00 -0.00000000000E+00 -0.90678858757E+02  0.90678858757E+02  0.00000000000E+00 0. -1.
         21    1    1    2  503  501 -0.91696710486E+01  0.30541575975E+02  0.70528182395E+02  0.77402165616E+02  0.00000000000E+00 0.  1.
         21    1    1    2  504  502 -0.10650651840E+03  0.72385709010E+02 -0.14955392718E+02  0.12964178763E+03  0.00000000000E+00 0. -1.
         21    1    1    2  505  504  0.87291236962E+02  0.10565015852E+03  0.78584680101E+03  0.79770728385E+03  0.00000000000E+00 0. -1.
          1    1    1    2  501    0  0.28384952481E+02 -0.20857744351E+03  0.12200472298E+04  0.12380733009E+04  0.00000000000E+00 0. -1.
<scales pt_clust_3="31.88841" pt_clust_4="14000.00000" pt_clust_5="138.26159" pt_clust_6="151.37986"></scales>
<clustering>
<clus scale="   31.888">  2  3  1 -1</clus>
<clus scale="  138.262">  1  5  2 -1</clus>
<clus scale="  151.380">  1  6  2 -1</clus>
<clus scale="   31.888">  2  3  1 -1</clus>
</clustering>
</event>
<event>
 6    0  0.6851428E+002  0.8359266E+02  0.7546771E-02  0.1319154E+00
         21   -1    0    0  505  502  0.00000000000E+00  0.00000000000E+00  0.31771383881E+03  0.31771383881E+03  0.00000000000E+00 0. -1.
         -3   -1    0    0    0  501 -0.00000000000E+00 -0.00000000000E+00 -0.69801710121E+03  0.69801710121E+03  0.00000000000E+00 0. -1.
         21    1    1    2  503  504 -0.19981308012E+02 -0.82431791065E+02  0.15588524824E+03  0.17746679539E+03  0.00000000000E+00 0. -1.
         21    1    1    2  504  502 -0.38947490732E+02 -0.22881925328E+02  0.76982279337E+02  0.89256713321E+02  0.00000000000E+00 0. -1.
         21    1    1    2  505  501  0.49620794481E+02  0.38165550790E+02  0.51393472172E+02  0.80994576942E+02  0.00000000000E+00 0.  1.
         -3    1    1    2    0  503  0.93080042633E+01  0.67148165603E+02 -0.66456426214E+03  0.66801285437E+03  0.00000000000E+00 0. -1.
<scales pt_clust_3="35.38124" pt_clust_4="35.38124" pt_clust_5="62.60058" pt_clust_6="68.09677"></scales>
<clustering>
<clus scale="   35.381">  3  4 -1 -1</clus>
<clus scale="   62.601">  1  5  2 -1</clus>
<clus scale="   68.097">  2  6  1 -1</clus>
<clus scale="   62.601">  1  3  2 -1</clus>
</clustering>
</event>
<event>
 6    0  0.6851428E+002  0.1389103E+03  0.7546771E-02  0.1214803E+00
         -2   -1    0    0    0  501 -0.00000000000E+00  0.00000000000E+00  0.33823744017E+03  0.33823744017E+03  0.00000000000E+00 0. -1.
         21   -1    0    0  503  502  0.00000000000E+00 -0.00000000000E+00 -0.17286433442E+03  0.17286433442E+03  0.00000000000E+00 0.  1.
         21    1    1    2  503  504  0.10917720920E+02  0.30177155260E+02  0.83670749556E-01  0.32091499349E+02  0.00000000000E+00 0.  1.
         21    1    1    2  504  501  0.38633037994E+02  0.87332869602E+01 -0.22370692423E+02  0.45488787687E+02  0.00000000000E+00 0.  1.
         21    1    1    2  505  502 -0.16539062604E+03  0.30776384771E+02 -0.36133504687E+02  0.17206648483E+03  0.00000000000E+00 0.  1.
         -2    1    1    2    0  505  0.11583986713E+03 -0.69686826991E+02  0.22379363211E+03  0.26145500272E+03  0.00000000000E+00 0. -1.
<scales pt_clust_3="32.09139" pt_clust_4="43.74298" pt_clust_5="14000.00000" pt_clust_6="138.91025"></scales>
<clustering>
<clus scale="   32.091">  2  3  1 -1</clus>
<clus scale="   43.743">  2  4  1 -1</clus>
<clus scale="  138.910">  1  6  2 -1</clus>
<clus scale="   32.091">  2  3  1 -1</clus>
</clustering>
</event>
<event>
 6    0  0.6851428E+002  0.2133344E+03  0.7546771E-02  0.1138952E+00
          2   -1    0    0  503    0 -0.00000000000E+00  0.00000000000E+00  0.22470772635E+03  0.22470772635E+03  0.00000000000E+00 0. -1.
         21   -1    0    0  504  502  0.00000000000E+00 -0.00000000000E+00 -0.15635709093E+04  0.15635709093E+04  0.00000000000E+00 0. -1.
         21    1    1    2  503  502 -0.21959216606E+03 -0.11963382715E+03 -0.11997493342E+04  0.12255331235E+04  0.00000000000E+00 0. -1.
         21    1    1    2  504  505  0.34254997576E+02 -0.68984325208E+01 -0.19029210202E+03  0.19347371223E+03  0.00000000000E+00 0.  1.
         21    1    1    2  505  501  0.38885092052E+02 -0.27005418076E+02 -0.98716911916E+02  0.10948228938E+03  0.00000000000E+00 0.  1.
          2    1    1    2  501    0  0.14645207643E+03  0.15353767774E+03  0.14989516524E+03  0.25978951045E+03  0.00000000000E+00 0. -1.
<scales pt_clust_3="14000.00000" pt_clust_4="34.94271" pt_clust_5="49.78783" pt_clust_6="213.33445"></scales>
<clustering>
<clus scale="   34.943">  2  4  1 -1</clus>
<clus scale="   49.788">  2  5  1 -1</clus>
<clus scale="  213.334">  1  6  2 -1</clus>
<clus scale="   34.943">  2  3  1 -1</clus>
</clustering>
</event>
<event>
 6    0  0.6851428E+002  0.1351271E+03  0.7546771E-02  0.1220040E+00
         -1   -1    0    0    0  501 -0.00000000000E+00  0.00000000000E+00  0.99935298432E+02  0.99935298432E+02  0.00000000000E+00 0.  1.
         21   -1    0    0  503  502  0.00000000000E+00 -0.00000000000E+00 -0.14679923041E+04  0.14679923041E+04  0.00000000000E+00 0.  1.
         21    1    1    2  503  505 -0.33025057184E+01  0.79485807331E+02 -0.87372901410E+03  0.87734331375E+03  0.00000000000E+00 0.  1.
         21    1    1    2  504  501  0.32238656963E+02  0.87397672264E+01 -0.58265407082E+02  0.67160793595E+02  0.00000000000E+00 0. -1.
         21    1    1    2  505  504  0.28058530215E+02  0.46355643679E+02 -0.47022080629E+03  0.47333258232E+03  0.00000000000E+00 0. -1.
         -1    1    1    2    0  502 -0.56994681459E+02 -0.13458121824E+03  0.34158221776E+02  0.15009091289E+03  0.00000000000E+00 0.  1.
<scales pt_clust_3="33.87277" pt_clust_4="33.40231" pt_clust_5="33.87277" pt_clust_6="128.77890"></scales>
<clustering>
<clus scale="   33.402">  1  4  2 -1</clus>
<clus scale="   33.873">  3  5 -1 -1</clus>
<clus scale="  128.779">  1  6  2 -1</clus>
<clus scale="  135.127">  2  3  1 -1</clus>
</clustering>
</event>
<event>
 6    0  0.6851428E+002  0.9730890E+02  0.7546771E-02  0.1286059E+00
         21   -1    0    0  501  502  0.00000000000E+00  0.00000000000E+00  0.34026813249E+03  0.34026813249E+03  0.00000000000E+00 0.  1.
          1   -1    0    0  504    0 -0.00000000000E+00 -0.00000000000E+00 -0.56355517651E+03  0.56355517651E+03  0.00000000000E+00 0. -1.
         21    1    1    2  503  502 -0.55991746817E+02 -0.21889961186E+02  0.17214170045E+03  0.18233762954E+03  0.00000000000E+00 0.  1.
         21    1    1    2  504  505  0.63794009833E+02 -0.37409713724E+02 -0.16244151373E+01  0.73971623587E+02  0.00000000000E+00 0.  1.
         21    1    1    2  505  503 -0.52251644861E+02  0.10888056164E+03  0.95334739978E+02  0.15386332812E+03  0.00000000000E+00 0.  1.
          1    1    1    2  501    0  0.44449381845E+02 -0.49580886728E+02 -0.48913906931E+03  0.49365072774E+03  0.00000000000E+00 0. -1.
<scales pt_clust_3="60.11860" pt_clust_4="97.30890" pt_clust_5="14000.00000" pt_clust_6="66.30131"></scales>
<clustering>
<clus scale="   60.119">  1  3  2 -1</clus>
<clus scale="   66.301">  2  6  1 -1</clus>
<clus scale="   97.309">  2  4  1 -1</clus>
<clus scale="   60.119">  1  3  2 -1</clus>
</clustering>
</event>
<event>
 6    0  0.6851428E+002  0.1203037E+03  0.7546771E-02  0.1242597E+00
         21   -1    0    0  503  502  0.00000000000E+00  0.00000000000E+00  0.34935872331E+04  0.34935872331E+04  0.00000000000E+00 0.  1.
         -1   -1    0    0    0  501 -0.00000000000E+00 -0.00000000000E+00 -0.79108500389E+03  0.79108500389E+03  0.00000000000E+00 0.  1.
         21    1    1    2  503  501  0.57586004411E+02  0.42950891633E+02  0.10661815399E+03  0.12856266082E+03  0.00000000000E+00 0.  1.
         21    1    1    2  504  502 -0.58274543031E+02  0.48847293391E+02  0.23638548826E+04  0.23650775645E+04  0.00000000000E+00 0.  1.
         21    1    1    2  505  504 -0.53961959429E+02  0.61745047709E+00  0.10071077416E+04  0.10085525656E+04  0.00000000000E+00 0. -1.
         -1    1    1    2    0  505  0.54650498049E+02 -0.92415635501E+02 -0.77507854891E+03  0.78247944612E+03  0.00000000000E+00 0.  1.
<scales pt_clust_3="71.83959" pt_clust_4="45.73640" pt_clust_5="45.73640" pt_clust_6="107.35702"></scales>
<clustering>
<clus scale="   45.736">  4  5 -1 -1</clus>
<clus scale="   71.840">  1  3  2 -1</clus>
<clus scale="  107.357">  2  6  1 -1</clus>
<clus scale="   71.840">  1  3  2 -1</clus>
</clustering>
</event>
<event>
 6    0  0.6851428E+002  0.8891951E+02  0.7546771E-02  0.1305490E+00
         21   -1    0    0  504  502  0.00000000000E+00  0.00000000000E+00  0.15501636217E+03  0.15501636217E+03  0.00000000000E+00 0. -1.
          1   -1    0    0  505    0 -0.00000000000E+00 -0.00000000000E+00 -0.59701933215E+03  0.59701933215E+03  0.00000000000E+00 0.  1.
         21    1    1    2  503  502 -0.51737652994E+02 -0.44143167127E+01 -0.23430073586E+02  0.56967001655E+02  0.00000000000E+00 0.  1.
         21    1    1    2  504  501  0.42236376226E+02  0.15113187856E+02  0.90905614611E+02  0.10137135045E+03  0.00000000000E+00 0. -1.
         21    1    1    2  505  503 -0.12899018465E+02  0.76588168126E+02 -0.13900534230E+01  0.77679240616E+02  0.00000000000E+00 0. -1.
          1    1    1    2  501    0  0.22400295232E+02 -0.87287039269E+02 -0.50808845758E+03  0.51601810159E+03  0.00000000000E+00 0.  1.
<scales pt_clust_3="39.70885" pt_clust_4="44.85889" pt_clust_5="14000.00000" pt_clust_6="88.91951"></scales>
<clustering>
<clus scale="   44.859">  1  4  2 -1</clus>
<clus scale="   39.709">  1  3  2 -1</clus>
<clus scale="   88.920">  2  6  1 -1</clus>
<clus scale="   44.859">  1  3  2 -1</clus>
</clustering>
</event>
<event>
 6    0  0.6851428E+002  0.7265228E+02  0.7546771E-02  0.1351299E+00
         21   -1    0    0  503  502  0.00000000000E+00  0.00000000000E+00  0.16118839940E+03  0.16118839940E+03  0.00000000000E+00 0.  1.
          2   -1    0    0  505    0 -0.00000000000E+00 -0.00000000000E+00 -0.41397083961E+03  0.41397083961E+03  0.00000000000E+00 0.  1.
         21    1    1    2  503  501  0.43184668834E+02  0.77594277771E+02 -0.21330250643E+02  0.91327800573E+02  0.00000000000E+00 0.  1.
         21    1    1    2  504  502 -0.58895893015E+02 -0.39377125421E+02  0.91278223894E+02  0.11554652041E+03  0.00000000000E+00 0.  1.
         21    1    1    2  505  504  0.43513203327E+02 -0.66174057995E+02 -0.52102947444E+02  0.94800432212E+02  0.00000000000E+00 0.  1.
          2    1    1    2  501    0 -0.27801979146E+02  0.27956905646E+02 -0.27062746602E+03  0.27348448581E+03  0.00000000000E+00 0.  1.
<scales pt_clust_3="72.65228" pt_clust_4="14000.00000" pt_clust_5="59.34232" pt_clust_6="39.42764"></scales>
<clustering>
<clus scale="   39.428">  2  6  1 -1</clus>
<clus scale="   59.342">  2  5  1 -1</clus>
<clus scale="   72.652">  2  3  1 -1</clus>
<clus scale="   72.652">  1  3  2 -1</clus>
</clustering>
</event>
<event>
 6    0  0.6851428E+002  0.1997682E+03  0.7546771E-02  0.1149935E+00
          2   -1    0    0  505    0 -0.00000000000E+00  0.00000000000E+00  0.35959380484E+04  0.35959380484E+04  0.00000000000E+00 0.  1.
         21   -1    0    0  501  502  0.00000000000E+00 -0.00000000000E+00 -0.17747789481E+03  0.17747789481E+03  0.00000000000E+00 0.  1.
         21    1    1    2  503  502  0.26385503486E+02  0.19481608955E+02  0.10003250277E+02  0.34289836655E+02  0.00000000000E+00 0. -1.
         21    1    1    2  504  503  0.34517731714E+02  0.58913971027E+01 -0.27964681981E+02  0.44813009281E+02  0.00000000000E+00 0. -1.
         21    1    1    2  505  504  0.40042219875E+02 -0.19798200241E+03 -0.45173612524E+02  0.20698045299E+03  0.00000000000E+00 0.  1.
          2    1    1    2  501    0 -0.10094545507E+03  0.17260899635E+03  0.34815951979E+04  0.34873326443E+04  0.00000000000E+00 0.  1.
<scales pt_clust_3="32.79829" pt_clust_4="41.58988" pt_clust_5="199.76818" pt_clust_6="14000.00000"></scales>
<clustering>
<clus scale="   32.798">  2  3  1 -1</clus>
<clus scale="   41.590">  2  4  1 -1</clus>
<clus scale="  199.768">  2  5  1 -1</clus>
<clus scale="   32.798">  2  3  1 -1</clus>
</clustering>
</event>
<event>
 6    0  0.6851428E+002  0.2470065E+03  0.7546771E-02  0.1115211E+00
         21   -1    0    0  505  502  0.00000000000E+00  0.00000000000E+00  0.12729866270E+03  0.12729866270E+03  0.00000000000E+00 0.  1.
          1   -1    0    0  502    0 -0.00000000000E+00 -0.00000000000E+00 -0.64505694315E+03  0.64505694315E+03  0.00000000000E+00 0. -1.
         21    1    1    2  503  501  0.21884701670E+02 -0.13031676829E+03 -0.69120633754E+02  0.14912767106E+03  0.00000000000E+00 0.  1.
         21    1    1    2  504  503 -0.16705184144E+02 -0.95403073934E+02 -0.43040741566E+02  0.10598733475E+03  0.00000000000E+00 0.  1.
         21    1    1    2  505  504 -0.54940148483E+02 -0.25827584646E+02 -0.48970683321E+02  0.77997511940E+02  0.00000000000E+00 0.  1.
          1    1    1    2  501    0  0.49760630957E+02  0.25154742687E+03 -0.35662622181E+03  0.43924308810E+03  0.00000000000E+00 0. -1.
<scales pt_clust_3="33.45729" pt_clust_4="33.45729" pt_clust_5="60.70819" pt_clust_6="243.89542"></scales>
<clustering>
<clus scale="   33.457">  3  4 -1 -1</clus>
<clus scale="   60.708">  1  5  2 -1</clus>
<clus scale="  243.895">  2  6  1 -1</clus>
<clus scale="   60.708">  1  3  2 -1</clus>
</clustering>
</event>
<event>
 6    0  0.6851428E+002  0.2136457E+03  0.7546771E-02  0.1138711E+00
         -2   -1    0    0    0  501 -0.00000000000E+00  0.00000000000E+00  0.76746213825E+03  0.76746213825E+03  0.00000000000E+00 0.  1.
         21   -1    0    0  505  502  0.00000000000E+00 -0.00000000000E+00 -0.42766892472E+03  0.42766892472E+03  0.00000000000E+00 0.  1.
         21    1    1    2  503  502 -0.85396927151E+02 -0.17461595217E+03 -0.14448978649E+03  0.24219963732E+03  0.00000000000E+00 0.  1.
         21    1    1    2  504  501  0.65279490653E+02  0.78259658907E+02 -0.62954983246E+02  0.11978863063E+03  0.00000000000E+00 0.  1.
         21    1    1    2  505  504  0.50760128020E+02  0.11801755947E+03 -0.11344804213E+03  0.17139192864E+03  0.00000000000E+00 0.  1.
         -2    1    1    2    0  503 -0.30642691521E+02 -0.21661266216E+02  0.66068602540E+03  0.66175086638E+03  0.00000000000E+00 0.  1.
<scales pt_clust_3="209.68147" pt_clust_4="36.48592" pt_clust_5="36.48592" pt_clust_6="37.52579"></scales>
<clustering>
<clus scale="   36.486">  4  5 -1 -1</clus>
<clus scale="   37.526">  1  6  2 -1</clus>
<clus scale="  209.681">  2  3  1 -1</clus>
<clus scale="  209.681">  2  3  1 -1</clus>
</clustering>
</event>
<event>
 6    0  0.6851428E+002  0.1210848E+03  0.7546771E-02  0.1241318E+00
         21   -1    0    0  505  502  0.00000000000E+00  0.00000000000E+00  0.87593068470E+01  0.87593068470E+01  0.00000000000E+00 0.  1.
          2   -1    0    0  504    0 -0.00000000000E+00 -0.00000000000E+00 -0.43916386630E+04  0.43916386630E+04  0.00000000000E+00 0.  1.
         21    1    1    2  503  501  0.30399261382E+02  0.35230129961E+02 -0.16586191307E+03  0.17226564183E+03  0.00000000000E+00 0.  1.
         21    1    1    2  504  502 -0.23383905652E+02 -0.76586261704E+02 -0.12853181230E+04  0.12878101335E+04  0.00000000000E+00 0. -1.
         21    1    1    2  505  503 -0.10898584708E+02  0.83866750394E+02 -0.42888476129E+03  0.43714362564E+03  0.00000000000E+00 0.  1.
          2    1    1    2  501    0  0.38832289778E+01 -0.42510618651E+02 -0.25028145587E+04  0.25031785688E+04  0.00000000000E+00 0.  1.
<scales pt_clust_3="41.24433" pt_clust_4="107.56315" pt_clust_5="41.24433" pt_clust_6="42.68761"></scales>
<clustering>
<clus scale="   41.244">  3  5 -1 -1</clus>
<clus scale="   42.688">  2  6  1 -1</clus>
<clus scale="  107.563">  2  4  1 -1</clus>
<clus scale="  121.085">  1  3  2 -1</clus>
</clustering>
</event>
<event>
 6    0  0.6851428E+002  0.1698800E+03  0.7546771E-02  0.1177973E+00
         21   -1    0    0  505  502  0.00000000000E+00  0.00000000000E+00  0.13929798560E+02  0.13929798560E+02  0.00000000000E+00 0. -1.
          2   -1    0    0  502    0 -0.00000000000E+00 -0.00000000000E+00 -0.26756824496E+04  0.26756824496E+04  0.00000000000E+00 0. -1.
         21    1    1    2  503  504 -0.33724442318E+02  0.24186360561E+02 -0.31331200623E+03  0.31604862172E+03  0.00000000000E+00 0. -1.
         21    1    1    2  504  501  0.73594258166E+02 -0.12204063914E+03 -0.11733499154E+04  0.11819729508E+04  0.00000000000E+00 0. -1.
         21    1    1    2  505  503 -0.31145038535E+02  0.12893375010E+03 -0.55385105894E+03  0.56951288030E+03  0.00000000000E+00 0. -1.
          2    1    1    2  501    0 -0.87247773130E+01 -0.31079471521E+02 -0.62123967040E+03  0.62207779527E+03  0.00000000000E+00 0. -1.
<scales pt_clust_3="38.37698" pt_clust_4="155.77431" pt_clust_5="38.37698" pt_clust_6="32.28088"></scales>
<clustering>
<clus scale="   32.281">  2  6  1 -1</clus>
<clus scale="   38.377">  3  5 -1 -1</clus>
<clus scale="  155.774">  2  4  1 -1</clus>
<clus scale="  169.880">  1  3  2 -1</clus>
</clustering>
</event>
<event>
 6    0  0.6851428E+002  0.6250371E+02  0.7546771E-02  0.1387615E+00
          1   -1    0    0  504    0 -0.00000000000E+00  0.00000000000E+00  0.60883518835E+03  0.60883518835E+03  0.00000000000E+00 0. -1.
         21   -1    0    0  505  502  0.00000000000E+00 -0.00000000000E+00 -0.73051873119E+03  0.73051873119E+03  0.00000000000E+00 0.  1.
         21    1    1    2  503  502  0.39189531256E+02  0.19041610283E+02 -0.88061741170E+02  0.98251068901E+02  0.00000000000E+00 0.  1.
         21    1    1    2  504  503  0.62566756280E+02 -0.43983884883E+02 -0.15537698874E+03  0.17317964589E+03  0.00000000000E+00 0.  1.
         21    1    1    2  505  501 -0.85346525731E+02 -0.26092001721E+02 -0.46764774382E+03  0.47608742297E+03  0.00000000000E+00 0.  1.
          1    1    1    2  501    0 -0.16409761805E+02  0.51034276320E+02  0.58940293089E+03  0.59183578177E+03  0.00000000000E+00 0. -1.
<scales pt_clust_3="43.57066" pt_clust_4="14000.00000" pt_clust_5="62.50371" pt_clust_6="53.61939"></scales>
<clustering>
<clus scale="   43.571">  2  3  1 -1</clus>
<clus scale="   53.619">  1  6  2 -1</clus>
<clus scale="   62.504">  2  5  1 -1</clus>
<clus scale="   43.571">  2  3  1 -1</clus>
</clustering>
</event>
<event>
 6    0  0.6851428E+002  0.1823462E+03  0.7546771E-02  0.1165551E+00
          2   -1    0    0  505    0 -0.00000000000E+00  0.00000000000E+00  0.41927235924E+03  0.41927235924E+03  0.00000000000E+00 0. -1.
         21   -1    0    0  501  502  0.00000000000E+00 -0.00000000000E+00 -0.16528659964E+03  0.16528659964E+03  0.00000000000E+00 0. -1.
         21    1    1    2  503  504 -0.11428587321E+03 -0.30457452908E+02 -0.40277262135E+02  0.12494468816E+03  0.00000000000E+00 0. -1.
         21    1    1    2  504  502 -0.68691533214E+02  0.20126132784E+02 -0.18106289545E+02  0.73833770574E+02  0.00000000000E+00 0. -1.
         21    1    1    2  505  503  0.15611838669E+03 -0.46740229889E+01  0.13708029350E+03  0.20781194388E+03  0.00000000000E+00 0. -1.
          2    1    1    2  501    0  0.26859019739E+02  0.15005343113E+02  0.17528901778E+03  0.17796855626E+03  0.00000000000E+00 0. -1.
<scales pt_clust_3="39.23048" pt_clust_4="39.23048" pt_clust_5="175.30939" pt_clust_6="30.76633"></scales>
<clustering>
<clus scale="   30.766">  1  6  2 -1</clus>
<clus scale="   39.230">  3  4 -1 -1</clus>
<clus scale="  175.309">  1  5  2 -1</clus>
<clus scale="  182.346">  2  3  1 -1</clus>
</clustering>
</event>
<event>
 6    0  0.6851428E+002  0.7474659E+02  0.7546771E-02  0.1344658E+00
          2   -1    0    0  505    0 -0.00000000000E+00  0.00000000000E+00  0.39037037143E+04  0.39037037143E+04  0.00000000000E+00 0. -1.
         21   -1    0    0  504  502  0.00000000000E+00 -0.00000000000E+00 -0.10069111510E+02  0.10069111510E+02  0.00000000000E+00 0. -1.
         21    1    1    2  503  502 -0.17549000699E+02  0.38629422645E+02  0.25623064892E+03  0.25971974351E+03  0.00000000000E+00 0. -1.
         21    1    1    2  504  501 -0.13111000061E+02 -0.11220953205E+03  0.63278501604E+03  0.64279059882E+03  0.00000000000E+00 0. -1.
         21    1    1    2  505  503  0.65672865421E+02  0.22355047557E+02  0.40467626929E+03  0.41057953716E+03  0.00000000000E+00 0. -1.
          2    1    1    2  501    0 -0.35012864661E+02  0.51225061850E+02  0.25999426685E+04  0.26006829463E+04  0.00000000000E+00 0. -1.
<scales pt_clust_3="42.42876" pt_clust_4="74.74659" pt_clust_5="14000.00000" pt_clust_6="63.90677"></scales>
<clustering>
<clus scale="   42.429">  2  3  1 -1</clus>
<clus scale="   63.907">  1  6  2 -1</clus>
<clus scale="   74.747">  2  4  1 -1</clus>
<clus scale="   42.429">  2  3  1 -1</clus>
</clustering>
</event>
<event>
 6    0  0.6851428E+002  0.1158657E+03  0.7546771E-02  0.1250077E+00
          2   -1    0    0  503    0 -0.00000000000E+00  0.00000000000E+00  0.17027106011E+04  0.17027106011E+04  0.00000000000E+00 0. -1.
         21   -1    0    0  501  502  0.00000000000E+00 -0.00000000000E+00 -0.15321907246E+02  0.15321907246E+02  0.00000000000E+00 0. -1.
         21    1    1    2  503  504 -0.81509028539E+00 -0.30546831977E+02  0.28264579400E+03  0.28429283878E+03  0.00000000000E+00 0.  1.
         21    1    1    2  504  505  0.10475670830E+03  0.12999778605E+02  0.68106078816E+03  0.68919283176E+03  0.00000000000E+00 0. -1.
         21    1    1    2  505  502  0.29853535517E+02 -0.16534981712E+02  0.96775736518E+02  0.10261667692E+03  0.00000000000E+00 0. -1.
          2    1    1    2  501    0 -0.13379515353E+03  0.34082035084E+02  0.62690637516E+03  0.64193016088E+03  0.00000000000E+00 0. -1.
<scales pt_clust_3="30.55770" pt_clust_4="115.86572" pt_clust_5="35.16802" pt_clust_6="14000.00000"></scales>
<clustering>
<clus scale="   30.558">  1  3  2 -1</clus>
<clus scale="   35.168">  2  5  1 -1</clus>
<clus scale="  115.866">  1  4  2 -1</clus>
<clus scale="   35.168">  2  3  1 -1</clus>
</clustering>
</event>
<event>
 6    0  0.6851428E+002  0.1662069E+03  0.7546771E-02  0.1181862E+00
          1   -1    0    0  504    0 -0.00000000000E+00  0.00000000000E+00  0.13545830256E+04  0.13545830256E+04  0.00000000000E+00 0. -1.
         21   -1    0    0  505  502  0.00000000000E+00 -0.00000000000E+00 -0.77641418336E+03  0.77641418336E+03  0.00000000000E+00 0. -1.
         21    1    1    2  503  502  0.22236695979E+03  0.69481623086E+02 -0.48206976494E+02  0.23790475686E+03  0.00000000000E+00 0. -1.
         21    1    1    2  504  503 -0.18635153834E+03 -0.39091352084E+02  0.96801769029E+03  0.98656640849E+03  0.00000000000E+00 0. -1.
         21    1    1    2  505  501 -0.62370356532E+02 -0.71332359185E+02 -0.61834937007E+03  0.62556719089E+03  0.00000000000E+00 0. -1.
          1    1    1    2  501    0  0.26354935082E+02  0.40942088183E+02  0.27670749855E+03  0.28095885275E+03  0.00000000000E+00 0. -1.
<scales pt_clust_3="166.20693" pt_clust_4="14000.00000" pt_clust_5="94.59265" pt_clust_6="48.69124"></scales>
<clustering>
<clus scale="   48.691">  1  6  2 -1</clus>
<clus scale="   94.593">  2  5  1 -1</clus>
<clus scale="  166.207">  2  3  1 -1</clus>
<clus scale="   94.593">  2  3  1 -1</clus>
</clustering>
</event>
<event>
 6    0  0.6851428E+002  0.8577482E+02  0.7546771E-02  0.1313419E+00
         21   -1    0    0  505  502  0.00000000000E+00  0.00000000000E+00  0.21174264334E+02  0.21174264334E+02  0.00000000000E+00 0.  1.
          2   -1    0    0  504    0 -0.00000000000E+00 -0.00000000000E+00 -0.21431785036E+04  0.21431785036E+04  0.00000000000E+00 0.  1.
         21    1    1    2  503  502 -0.29791161248E+01 -0.52819092732E+02 -0.64602144737E+02  0.83499513739E+02  0.00000000000E+00 0.  1.
         21    1    1    2  504  503 -0.35733739837E+02 -0.43334227014E+02 -0.24248375522E+03  0.24890385079E+03  0.00000000000E+00 0. -1.
         21    1    1    2  505  501  0.45016057072E+02  0.13001068059E+03 -0.56334804678E+03  0.57990537528E+03  0.00000000000E+00 0.  1.
          2    1    1    2  501    0 -0.63032011093E+01 -0.33857360847E+02 -0.12515702925E+04  0.12520440281E+04  0.00000000000E+00 0.  1.
<scales pt_clust_3="55.74196" pt_clust_4="14000.00000" pt_clust_5="85.77482" pt_clust_6="34.43909"></scales>
<clustering>
<clus scale="   34.439">  2  6  1 -1</clus>
<clus scale="   55.742">  1  3  2 -1</clus>
<clus scale="   85.775">  1  5  2 -1</clus>
<clus scale="   55.742">  1  3  2 -1</clus>
</clustering>
</event>
<event>
 6    0  0.6851428E+002  0.1641457E+03  0.7546771E-02  0.1184094E+00
         21   -1    0    0  503  502  0.00000000000E+00  0.00000000000E+00  0.22084328858E+02  0.22084328858E+02  0.00000000000E+00 0.  1.
          2   -1    0    0  505    0 -0.00000000000E+00 -0.00000000000E+00 -0.15523406529E+04  0.15523406529E+04  0.00000000000E+00 0. -1.
         21    1    1    2  503  501  0.26304076797E+02  0.21885948993E+02 -0.93045829147E+02  0.99138416071E+02  0.00000000000E+00 0.  1.
         21    1    1    2  504  502 -0.52127275722E+02  0.90786373620E+02 -0.26609058288E+03  0.28594338042E+03  0.00000000000E+00 0.  1.
         21    1    1    2  505  504 -0.23469287340E+02  0.40239416638E+02 -0.24436927159E+03  0.24876969067E+03  0.00000000000E+00 0.  1.
          2    1    1    2  501    0  0.49292486265E+02 -0.15291173925E+03 -0.92675064043E+03  0.94057349460E+03  0.00000000000E+00 0. -1.
<scales pt_clust_3="34.21840" pt_clust_4="33.12713" pt_clust_5="33.12713" pt_clust_6="156.45323"></scales>
<clustering>
<clus scale="   33.127">  4  5 -1 -1</clus>
<clus scale="   34.218">  1  3  2 -1</clus>
<clus scale="  156.453">  2  6  1 -1</clus>
<clus scale="   34.218">  1  3  2 -1</clus>
</clustering>
</event>
<event>
 6    0  0.6851428E+002  0.8993147E+02  0.7546771E-02  0.1303018E+00
          1   -1    0    0  503    0 -0.00000000000E+00  0.00000000000E+00  0.65968669775E+03  0.65968669775E+03  0.00000000000E+00 0.  1.
         21   -1    0    0  504  502  0.00000000000E+00 -0.00000000000E+00 -0.30766089645E+03  0.30766089645E+03  0.00000000000E+00 0. -1.
         21    1    1    2  503  505  0.32445624728E+02 -0.66040151300E+02  0.66834024608E+02  0.99402248430E+02  0.00000000000E+00 0.  1.
         21    1    1    2  504  501 -0.90606097633E+01 -0.61477412252E+02  0.15566993201E+02  0.64061674532E+02  0.00000000000E+00 0.  1.
         21    1    1    2  505  502 -0.62979117567E+01  0.96058464986E+02 -0.25783027070E+03  0.27521508112E+03  0.00000000000E+00 0. -1.
          1    1    1    2  501    0 -0.17087103208E+02  0.31459098567E+02  0.52745505420E+03  0.52866859012E+03  0.00000000000E+00 0.  1.
<scales pt_clust_3="51.00039" pt_clust_4="14000.00000" pt_clust_5="89.93147" pt_clust_6="35.80006"></scales>
<clustering>
<clus scale="   35.800">  1  6  2 -1</clus>
<clus scale="   51.000">  1  3  2 -1</clus>
<clus scale="   89.931">  2  5  1 -1</clus>
<clus scale="   89.931">  2  3  1 -1</clus>
</clustering>
</event>
<event>
 6    0  0.6851428E+002  0.1429799E+03  0.7546771E-02  0.1209375E+00
         -1   -1    0    0    0  501 -0.00000000000E+00  0.00000000000E+00  0.17699650598E+04  0.17699650598E+04  0.00000000000E+00 0.  1.
         21   -1    0    0  505  502  0.00000000000E+00 -0.00000000000E+00 -0.42426390123E+02  0.42426390123E+02  0.00000000000E+00 0. -1.
         21    1    1    2  503  501 -0.27124254448E+02  0.53551002002E+02  0.96019281896E+02  0.11323929305E+03  0.00000000000E+00 0. -1.
         21    1    1    2  504  502 -0.17806567311E+02 -0.28049468419E+02  0.33243474299E+02  0.46999735121E+02  0.00000000000E+00 0. -1.
         21    1    1    2  505  503 -0.57782304156E+02  0.54669036791E+02  0.41102546121E+02  0.89537241162E+02  0.00000000000E+00 0. -1.
         -1    1    1    2    0  504  0.10271312592E+03 -0.80170570375E+02  0.15571733674E+04  0.15626151806E+04  0.00000000000E+00 0.  1.
<scales pt_clust_3="49.38485" pt_clust_4="33.22419" pt_clust_5="49.38485" pt_clust_6="130.56812"></scales>
<clustering>
<clus scale="   33.224">  2  4  1 -1</clus>
<clus scale="   49.385">  3  5 -1 -1</clus>
<clus scale="  130.568">  1  6  2 -1</clus>
<clus scale="   33.224">  2  3  1 -1</clus>
</clustering>
</event>
<event>
 6    0  0.6851428E+002  0.8958431E+02  0.7546771E-02  0.1303861E+00
         21   -1    0    0  503  502  0.00000000000E+00  0.00000000000E+00  0.27276952129E+03  0.27276952129E+03  0.00000000000E+00 0. -1.
          1   -1    0    0  504    0 -0.00000000000E+00 -0.00000000000E+00 -0.14247207386E+04  0.14247207386E+04  0.00000000000E+00 0.  1.
         21    1    1    2  503  501 -0.64496574382E+02  0.99101382389E+01  0.44625377403E+02  0.79053420263E+02  0.00000000000E+00 0. -1.
         21    1    1    2  504  505  0.13960116300E+03 -0.11918985449E+02  0.11468282119E+03  0.18105992489E+03  0.00000000000E+00 0. -1.
         21    1    1    2  505  502  0.44204634975E+01  0.42614917857E+02  0.54150970143E+02  0.69049976748E+02  0.00000000000E+00 0. -1.
          1    1    1    2  501    0 -0.79525052118E+02 -0.40606070647E+02 -0.13654103860E+04  0.13683269380E+04  0.00000000000E+00 0.  1.
<scales pt_clust_3="67.05071" pt_clust_4="89.58431" pt_clust_5="42.84357" pt_clust_6="14000.00000"></scales>
<clustering>
<clus scale="   42.844">  1  5  2 -1</clus>
<clus scale="   67.051">  1  3  2 -1</clus>
<clus scale="   89.584">  1  4  2 -1</clus>
<clus scale="   42.844">  1  3  2 -1</clus>
</clustering>
</event>
<event>
 6    0  0.6851428E+002  0.1030783E+03  0.7546771E-02  0.1273953E+00
         21   -1    0    0  505  502  0.00000000000E+00  0.00000000000E+00  0.60293145007E+02  0.60293145007E+02  0.00000000000E+00 0.  1.
          2   -1    0    0  504    0 -0.00000000000E+00 -0.00000000000E+00 -0.79312047978E+03  0.79312047978E+03  0.00000000000E+00 0.  1.
         21    1    1    2  503  501  0.23632873704E+02  0.91564931215E+02 -0.63358043928E+02  0.11382834040E+03  0.00000000000E+00 0.  1.
         21    1    1    2  504  502  0.44688508378E+02 -0.10325821600E+03 -0.24369082350E+03  0.26841113876E+03  0.00000000000E+00 0.  1.
         21    1    1    2  505  503 -0.20299118565E+02  0.23558955020E+02  0.99468475874E+01  0.32649936495E+02  0.00000000000E+00 0.  1.
          2    1    1    2  501    0 -0.48022263517E+02 -0.11865670240E+02 -0.43572531493E+03  0.43852420913E+03  0.00000000000E+00 0.  1.
<scales pt_clust_3="103.07827" pt_clust_4="14000.00000" pt_clust_5="31.09789" pt_clust_6="49.98081"></scales>
<clustering>
<clus scale="   31.098">  1  5  2 -1</clus>
<clus scale="   49.981">  2  6  1 -1</clus>
<clus scale="  103.078">  1  3  2 -1</clus>
<clus scale="   31.098">  1  3  2 -1</clus>
</clustering>
</event>
<event>
 6    0  0.6851428E+002  0.1143578E+03  0.7546771E-02  0.1252706E+00
         21   -1    0    0  503  502  0.00000000000E+00  0.00000000000E+00  0.48264248639E+02  0.48264248639E+02  0.00000000000E+00 0.  1.
          2   -1    0    0  504    0 -0.00000000000E+00 -0.00000000000E+00 -0.56039078874E+03  0.56039078874E+03  0.00000000000E+00 0. -1.
         21    1    1    2  503  501  0.45843614837E+02 -0.40031406044E+01 -0.54219721411E+02  0.71115682841E+02  0.00000000000E+00 0. -1.
         21    1    1    2  504  505 -0.42466344547E+02  0.27771504416E+02 -0.41810055710E+02  0.65747453450E+02  0.00000000000E+00 0. -1.
         21    1    1    2  505  502 -0.93504036778E+02 -0.28950985788E+02 -0.88417516951E+02  0.13190459346E+03  0.00000000000E+00 0.  1.
          2    1    1    2  501    0  0.90126766489E+02  0.51826219768E+01 -0.32767924603E+03  0.33988730763E+03  0.00000000000E+00 0. -1.
<scales pt_clust_3="46.01806" pt_clust_4="43.30576" pt_clust_5="43.30576" pt_clust_6="97.26219"></scales>
<clustering>
<clus scale="   43.306">  4  5 -1 -1</clus>
<clus scale="   46.018">  1  3  2 -1</clus>
<clus scale="   97.262">  2  6  1 -1</clus>
<clus scale="   46.018">  1  3  2 -1</clus>
</clustering>
</event>
<event>
 6    0  0.6851428E+002  0.1800405E+03  0.7546771E-02  0.1167764E+00
         21   -1    0    0  501  502  0.00000000000E+00  0.00000000000E+00  0.23770984422E+03  0.23770984422E+03  0.00000000000E+00 0.  1.
          2   -1    0    0  504    0 -0.00000000000E+00 -0.00000000000E+00 -0.19150010586E+04  0.19150010586E+04  0.00000000000E+00 0. -1.
         21    1    1    2  503  505  0.49760216041E+02  0.12207575555E+02 -0.22545371465E+02  0.55976761034E+02  0.00000000000E+00 0. -1.
         21    1    1    2  504  503  0.13059092131E+03  0.46633308858E+02 -0.16627191075E+03  0.21650635679E+03  0.00000000000E+00 0. -1.
         21    1    1    2  505  502 -0.11398431448E+02 -0.31849575876E+02  0.19003446927E+03  0.19302181025E+03  0.00000000000E+00 0.  1.
          2    1    1    2  501    0 -0.16895270590E+03 -0.26991308537E+02 -0.16785084015E+04  0.16872059748E+04  0.00000000000E+00 0. -1.
<scales pt_clust_3="31.03214" pt_clust_4="31.03214" pt_clust_5="33.82780" pt_clust_6="172.65078"></scales>
<clustering>
<clus scale="   31.032">  3  4 -1 -1</clus>
<clus scale="   33.828">  1  5  2 -1</clus>
<clus scale="  172.651">  2  6  1 -1</clus>
<clus scale="   33.828">  1  3  2 -1</clus>
</clustering>
</event>
<event>
 6    0  0.6851428E+002  0.1004156E+03  0.7546771E-02  0.1279424E+00
         21   -1    0    0  501  502  0.00000000000E+00  0.00000000000E+00  0.91147635469E+02  0.91147635469E+02  0.00000000000E+00 0.  1.
          3   -1    0    0  503    0 -0.00000000000E+00 -0.00000000000E+00 -0.50633198322E+03  0.50633198322E+03  0.00000000000E+00 0.  1.
         21    1    1    2  503  505 -0.19488791595E+02  0.51857891601E+02 -0.27235854942E+02  0.61732047702E+02  0.00000000000E+00 0.  1.
         21    1    1    2  504  502  0.13017179726E+02 -0.56733810960E+02  0.26629856039E+02  0.64010323439E+02  0.00000000000E+00 0.  1.
         21    1    1    2  505  504 -0.72213575185E+02  0.25909728316E+02 -0.36455474817E+02  0.84941839552E+02  0.00000000000E+00 0.  1.
          3    1    1    2  501    0  0.78685187053E+02 -0.21033808956E+02 -0.37812287403E+03  0.38679540799E+03  0.00000000000E+00 0.  1.
<scales pt_clust_3="46.53927" pt_clust_4="58.20801" pt_clust_5="46.53927" pt_clust_6="84.16518"></scales>
<clustering>
<clus scale="   46.539">  3  5 -1 -1</clus>
<clus scale="   58.208">  1  4  2 -1</clus>
<clus scale="   84.165">  2  6  1 -1</clus>
<clus scale="   58.208">  1  3  2 -1</clus>
</clustering>
</event>
<event>
 6    0  0.6851428E+002  0.1229395E+03  0.7546771E-02  0.1238325E+00
          2   -1    0    0  504    0 -0.00000000000E+00  0.00000000000E+00  0.38712988583E+04  0.38712988583E+04  0.00000000000E+00 0.  1.
         21   -1    0    0  503  502  0.00000000000E+00 -0.00000000000E+00 -0.42181136270E+02  0.42181136270E+02  0.00000000000E+00 0.  1.
         21    1    1    2  503  501  0.35322724078E+02 -0.36043759342E+02  0.21714460680E+03  0.22293189024E+03  0.00000000000E+00 0. -1.
         21    1    1    2  504  505 -0.12186247360E+03  0.57981979289E+02  0.15132200904E+04  0.15192259261E+04  0.00000000000E+00 0.  1.
         21    1    1    2  505  502  0.44914278014E+02 -0.63609341586E+02  0.63894922981E+01  0.78129804290E+02  0.00000000000E+00 0.  1.
          2    1    1    2  501    0  0.41625471512E+02  0.41671121639E+02  0.20923635325E+04  0.20931923740E+04  0.00000000000E+00 0.  1.
<scales pt_clust_3="50.46630" pt_clust_4="14000.00000" pt_clust_5="122.93954" pt_clust_6="58.89633"></scales>
<clustering>
<clus scale="   50.466">  2  3  1 -1</clus>
<clus scale="   58.896">  1  6  2 -1</clus>
<clus scale="  122.940">  2  5  1 -1</clus>
<clus scale="   50.466">  2  3  1 -1</clus>
</clustering>
</event>
<event>
 6    0  0.6851428E+002  0.1082465E+03  0.7546771E-02  0.1263852E+00
         21   -1    0    0  501  502  0.00000000000E+00  0.00000000000E+00  0.76588725714E+03  0.76588725714E+03  0.00000000000E+00 0.  1.
          3   -1    0    0  505    0 -0.00000000000E+00 -0.00000000000E+00 -0.31578980333E+02  0.31578980333E+02  0.00000000000E+00 0.  1.
         21    1    1    2  503  502  0.13681701906E+02 -0.54748978402E+02  0.36825878965E+03  0.37255761401E+03  0.00000000000E+00 0.  1.
         21    1    1    2  504  503  0.11081496734E+02  0.56987071591E+02  0.11365407609E+03  0.12762278367E+03  0.00000000000E+00 0.  1.
         21    1    1    2  505  504  0.21220868278E+01  0.67576279087E+02  0.58310305420E+02  0.89281288442E+02  0.00000000000E+00 0.  1.
          3    1    1    2  501    0 -0.26885285468E+02 -0.69814372276E+02  0.19408510564E+03  0.20800455135E+03  0.00000000000E+00 0.  1.
<scales pt_clust_3="56.43261" pt_clust_4="39.15301" pt_clust_5="39.15301" pt_clust_6="99.65960"></scales>
<clustering>
<clus scale="   39.153">  4  5 -1 -1</clus>
<clus scale="   56.433">  1  3  2 -1</clus>
<clus scale="   99.660">  1  6  2 -1</clus>
<clus scale="   56.433">  1  3  2 -1</clus>
</clustering>
</event>
<event>
 6    0  0.6851428E+002  0.6902636E+02  0.7546771E-02  0.1363436E+00
         -3   -1    0    0    0  501 -0.00000000000E+00  0.00000000000E+00  0.51238068906E+03  0.51238068906E+03  0.00000000000E+00 0. -1.
         21   -1    0    0  501  502  0.00000000000E+00 -0.00000000000E+00 -0.13486873879E+03  0.13486873879E+03  0.00000000000E+00 0. -1.
         21    1    1    2  503  504  0.37165010983E+02  0.76566727006E+02 -0.11787641213E+02  0.85922349893E+02  0.00000000000E+00 0. -1.
         21    1    1    2  504  502  0.14709515607E+02 -0.52067536370E+02 -0.54748998705E+02  0.76973054066E+02  0.00000000000E+00 0. -1.
         21    1    1    2  505  503 -0.88887939455E+02 -0.25049816258E+02  0.91968496331E+02  0.13033327815E+03  0.00000000000E+00 0. -1.
         -3    1    1    2    0  505  0.37013412865E+02  0.55062562224E+00  0.35208009386E+03  0.35402074574E+03  0.00000000000E+00 0. -1.
<scales pt_clust_3="14000.00000" pt_clust_4="54.82706" pt_clust_5="69.02636" pt_clust_6="37.01751"></scales>
<clustering>
<clus scale="   37.018">  1  6  2 -1</clus>
<clus scale="   54.827">  2  4  1 -1</clus>
<clus scale="   69.026">  1  5  2 -1</clus>
<clus scale="   54.827">  2  3  1 -1</clus>
</clustering>
</event>
<event>
 6    0  0.6851428E+002  0.1963648E+03  0.7546771E-02  0.1152843E+00
          2   -1    0    0  505    0 -0.00000000000E+00  0.00000000000E+00  0.58998432229E+03  0.58998432229E+03  0.00000000000E+00 0.  1.
         21   -1    0    0  503  502  0.00000000000E+00 -0.00000000000E+00 -0.71059525648E+02  0.71059525648E+02  0.00000000000E+00 0.  1.
         21    1    1    2  503  501  0.62896401800E+02  0.19406781192E+01  0.60558845873E+02  0.87333254860E+02  0.00000000000E+00 0.  1.
         21    1    1    2  504  502 -0.64705075302E+02  0.10020221368E+02  0.73008235582E+02  0.98068109337E+02  0.00000000000E+00 0. -1.
         21    1    1    2  505  504 -0.11485361357E+03 -0.86649572189E+01  0.59760669722E+02  0.12976043958E+03  0.00000000000E+00 0.  1.
          2    1    1    2  501    0  0.11666228707E+03 -0.32959422684E+01  0.32559704547E+03  0.34588204417E+03  0.00000000000E+00 0.  1.
<scales pt_clust_3="58.35582" pt_clust_4="34.01318" pt_clust_5="185.14390" pt_clust_6="58.35582"></scales>
<clustering>
<clus scale="   34.013">  4  5 -1 -1</clus>
<clus scale="   58.356">  3  6 -1 -1</clus>
<clus scale="  185.144">  2  4  1 -1</clus>
<clus scale="  185.144">  2  3  1 -1</clus>
</clustering>
</event>
<event>
 6    0  0.6851428E+002  0.2140540E+03  0.7546771E-02  0.1138395E+00
          2   -1    0    0  503    0 -0.00000000000E+00  0.00000000000E+00  0.30691179953E+04  0.30691179953E+04  0.00000000000E+00 0.  1.
         21   -1    0    0  505  502  0.00000000000E+00 -0.00000000000E+00 -0.37239302993E+02  0.37239302993E+02  0.00000000000E+00 0.  1.
         21    1    1    2  503  504  0.14095237763E+02 -0.10236486043E+03  0.40947779478E+03  0.42231422518E+03  0.00000000000E+00 0.  1.
         21    1    1    2  504  502  0.91555978049E+02 -0.82486530343E+02  0.25016333778E+03  0.27886954006E+03  0.00000000000E+00 0.  1.
         21    1    1    2  505  501 -0.11171370907E+03 -0.97280802883E+00  0.23869597564E+03  0.26354632977E+03  0.00000000000E+00 0.  1.
          2    1    1    2  501    0  0.60624932533E+01  0.18582419880E+03  0.21335415841E+04  0.21416272033E+04  0.00000000000E+00 0.  1.
<scales pt_clust_3="96.90804" pt_clust_4="96.90804" pt_clust_5="111.71794" pt_clust_6="186.06207"></scales>
<clustering>
<clus scale="   96.908">  3  4 -1 -1</clus>
<clus scale="  111.718">  2  5  1 -1</clus>
<clus scale="  186.062">  1  6  2 -1</clus>
<clus scale="  111.718">  2  3  1 -1</clus>
</clustering>
</event>
<event>
 6    0  0.6851428E+002  0.8344620E+02  0.7546771E-02  0.1319547E+00
          2   -1    0    0  505    0 -0.00000000000E+00  0.00000000000E+00  0.64184100957E+03  0.64184100957E+03  0.00000000000E+00 0. -1.
         21   -1    0    0  504  502  0.00000000000E+00 -0.00000000000E+00 -0.45064527166E+03  0.45064527166E+03  0.00000000000E+00 0. -1.
         21    1    1    2  503  502 -0.32459155431E+02 -0.40218998688E+01 -0.78616775334E+02  0.85149103423E+02  0.00000000000E+00 0. -1.
         21    1    1    2  504  501  0.12650851855E+03  0.48083642492E+02  0.17513019918E+03  0.22133013488E+03  0.00000000000E+00 0. -1.
         21    1    1    2  505  503 -0.43892866423E+02 -0.29311431726E+02 -0.34207951975E+03  0.34612734879E+03  0.00000000000E+00 0. -1.
          2    1    1    2  501    0 -0.50156496700E+02 -0.14750310898E+02  0.43676183381E+03  0.43987969413E+03  0.00000000000E+00 0. -1.
<scales pt_clust_3="32.70738" pt_clust_4="14000.00000" pt_clust_5="83.44620" pt_clust_6="52.41690"></scales>
<clustering>
<clus scale="   32.707">  2  3  1 -1</clus>
<clus scale="   52.417">  1  6  2 -1</clus>
<clus scale="   83.446">  2  5  1 -1</clus>
<clus scale="   32.707">  2  3  1 -1</clus>
</clustering>
</event>
<event>
 6    0  0.6851428E+002  0.1475583E+03  0.7546771E-02  0.1203506E+00
          2   -1    0    0  503    0 -0.00000000000E+00  0.00000000000E+00  0.25019491208E+04  0.25019491208E+04  0.00000000000E+00 0. -1.
         21   -1    0    0  504  502  0.00000000000E+00 -0.00000000000E+00 -0.19036347977E+03  0.19036347977E+03  0.00000000000E+00 0.  1.
         21    1    1    2  503  505 -0.24335106910E+02  0.17762207238E+03  0.42925373767E+03  0.46518874592E+03  0.00000000000E+00 0. -1.
         21    1    1    2  504  501 -0.20250644193E+02 -0.26300410543E+02  0.10959418987E+02  0.34955815675E+02  0.00000000000E+00 0.  1.
         21    1    1    2  505  502  0.15737739308E+02 -0.12048733433E+03 -0.13713109032E+03  0.18322065960E+03  0.00000000000E+00 0.  1.
          2    1    1    2  501    0  0.28848011795E+02 -0.30834327512E+02  0.20085035747E+04  0.20089473793E+04  0.00000000000E+00 0. -1.
<scales pt_clust_3="147.55834" pt_clust_4="33.19338" pt_clust_5="14000.00000" pt_clust_6="42.23185"></scales>
<clustering>
<clus scale="   33.193">  2  4  1 -1</clus>
<clus scale="   42.232">  1  6  2 -1</clus>
<clus scale="  147.558">  1  3  2 -1</clus>
<clus scale="   33.193">  2  3  1 -1</clus>
</clustering>
</event>
<event>
 6    0  0.6851428E+002  0.1084839E+03  0.7546771E-02  0.1263404E+00
          2   -1    0    0  504    0 -0.00000000000E+00  0.00000000000E+00  0.24108534910E+04  0.24108534910E+04  0.00000000000E+00 0.  1.
         21   -1    0    0  505  502  0.00000000000E+00 -0.00000000000E+00 -0.37694016297E+02  0.37694016297E+02  0.00000000000E+00 0. -1.
         21    1    1    2  503  502 -0.54246230332E+02  0.42590199572E+02  0.42469546075E+02  0.80995314362E+02  0.00000000000E+00 0. -1.
         21    1    1    2  504  503 -0.51188172812E+02  0.16022203218E+02  0.29098102515E+03  0.29588324899E+03  0.00000000000E+00 0. -1.
         21    1    1    2  505  501 -0.58106294465E+02 -0.64352483622E+02  0.13830048567E+03  0.16323176144E+03  0.00000000000E+00 0. -1.
          2    1    1    2  501    0  0.16354069761E+03  0.57400808317E+01  0.19014084178E+04  0.19084371825E+04  0.00000000000E+00 0.  1.
<scales pt_clust_3="70.43241" pt_clust_4="53.63711" pt_clust_5="108.48386" pt_clust_6="14000.00000"></scales>
<clustering>
<clus scale="   53.637">  1  4  2 -1</clus>
<clus scale="   70.432">  2  3  1 -1</clus>
<clus scale="  108.484">  2  5  1 -1</clus>
<clus scale="   70.432">  2  3  1 -1</clus>
</clustering>
</event>
<event>
 6    0  0.6851428E+002  0.2351072E+03  0.7546771E-02  0.1123096E+00
         21   -1    0    0  501  502  0.00000000000E+00  0.00000000000E+00  0.95428490162E+03  0.95428490162E+03  0.00000000000E+00 0. -1.
          2   -1    0    0  503    0 -0.00000000000E+00 -0.00000000000E+00 -0.29429957481E+03  0.29429957481E+03  0.00000000000E+00 0. -1.
         21    1    1    2  503  505  0.91160112905E+01  0.30440682856E+02 -0.39653827301E+02  0.50814986512E+02  0.00000000000E+00 0.  1.
         21    1    1    2  504  502 -0.36370842293E+02  0.18020533711E+02  0.72136602540E+03  0.72250710752E+03  0.00000000000E+00 0. -1.
         21    1    1    2  505  504  0.28727896223E+02  0.21198771517E+03 -0.25326090700E+00  0.21392556543E+03  0.00000000000E+00 0. -1.
          2    1    1    2  501    0 -0.14730652203E+01 -0.26044893174E+03 -0.21473610382E+02  0.26133681698E+03  0.00000000000E+00 0. -1.
<scales pt_clust_3="31.77636" pt_clust_4="40.60268" pt_clust_5="14000.00000" pt_clust_6="235.10721"></scales>
<clustering>
<clus scale="   31.776">  2  3  1 -1</clus>
<clus scale="   40.603">  1  4  2 -1</clus>
<clus scale="  235.107">  2  6  1 -1</clus>
<clus scale="   40.603">  1  3  2 -1</clus>
</clustering>
</event>
<event>
 6    0  0.6851428E+002  0.1563140E+03  0.7546771E-02  0.1192922E+00
          1   -1    0    0  503    0 -0.00000000000E+00  0.00000000000E+00  0.15170506958E+04  0.15170506958E+04  0.00000000000E+00 0.  1.
         21   -1    0    0  504  502  0.00000000000E+00 -0.00000000000E+00 -0.13778877109E+03  0.13778877109E+03  0.00000000000E+00 0.  1.
         21    1    1    2  503  502  0.11815013977E+01  0.31618525594E+02  0.36541023768E+02  0.48336047877E+02  0.00000000000E+00 0.  1.
         21    1    1    2  504  505  0.46283537097E+02  0.14272521832E+03 -0.38344192942E+02  0.15486423371E+03  0.00000000000E+00 0.  1.
         21    1    1    2  505  501 -0.18151839758E+02 -0.14205628720E+03  0.11195074254E+03  0.18177581460E+03  0.00000000000E+00 0.  1.
          1    1    1    2  501    0 -0.29313198736E+02 -0.32287456712E+02  0.12691143513E+04  0.12698633707E+04  0.00000000000E+00 0.  1.
<scales pt_clust_3="31.64059" pt_clust_4="156.31398" pt_clust_5="14000.00000" pt_clust_6="43.54029"></scales>
<clustering>
<clus scale="   31.641">  2  3  1 -1</clus>
<clus scale="   43.540">  1  6  2 -1</clus>
<clus scale="  156.314">  2  4  1 -1</clus>
<clus scale="   31.641">  2  3  1 -1</clus>
</clustering>
</event>
<event>
 6    0  0.6851428E+002  0.1219182E+03  0.7546771E-02  0.1239966E+00
          2   -1    0    0  505    0 -0.00000000000E+00  0.00000000000E+00  0.59172703836E+03  0.59172703836E+03  0.00000000000E+00 0.  1.
         21   -1    0    0  504  502  0.00000000000E+00 -0.00000000000E+00 -0.24160496842E+03  0.24160496842E+03  0.00000000000E+00 0.  1.
         21    1    1    2  503  501  0.14363432911E+02  0.14947332248E+03 -0.84891849096E+02  0.17249698079E+03  0.00000000000E+00 0.  1.
         21    1    1    2  504  503  0.97004152898E+01 -0.32788860485E+02 -0.91126702220E+02  0.97330793104E+02  0.00000000000E+00 0.  1.
         21    1    1    2  505  502 -0.39271233666E+02  0.29023346804E+01  0.21909583626E+02  0.45063102366E+02  0.00000000000E+00 0.  1.
          2    1    1    2  501    0  0.15207385465E+02 -0.11958679668E+03  0.50423103763E+03  0.51844113053E+03  0.00000000000E+00 0.  1.
<scales pt_clust_3="121.91816" pt_clust_4="34.19368" pt_clust_5="38.51063" pt_clust_6="14000.00000"></scales>
<clustering>
<clus scale="   34.194">  2  4  1 -1</clus>
<clus scale="   38.511">  2  5  1 -1</clus>
<clus scale="  121.918">  2  3  1 -1</clus>
<clus scale="   34.194">  2  3  1 -1</clus>
</clustering>
</event>
<event>
 6    0  0.6851428E+002  0.7693842E+02  0.7546771E-02  0.1337971E+00
         21   -1    0    0  504  502  0.00000000000E+00  0.00000000000E+00  0.21092986478E+03  0.21092986478E+03  0.00000000000E+00 0. -1.
          1   -1    0    0  505    0 -0.00000000000E+00 -0.00000000000E+00 -0.14582544613E+04  0.14582544613E+04  0.00000000000E+00 0.  1.
         21    1    1    2  503  502  0.63657686918E+02 -0.85429616234E+02  0.15447753470E+03  0.18765348161E+03  0.00000000000E+00 0. -1.
         21    1    1    2  504  501 -0.23898690791E+01  0.49005060333E+02 -0.65121912648E+01  0.49493596026E+02  0.00000000000E+00 0. -1.
         21    1    1    2  505  503 -0.10528117090E+03 -0.94453097232E+01 -0.14142911028E+03  0.17656594251E+03  0.00000000000E+00 0. -1.
          1    1    1    2  501    0  0.44013353062E+02  0.45869865624E+02 -0.12538608296E+04  0.12554713059E+04  0.00000000000E+00 0.  1.
<scales pt_clust_3="14000.00000" pt_clust_4="49.06330" pt_clust_5="76.93842" pt_clust_6="63.71404"></scales>
<clustering>
<clus scale="   49.063">  1  4  2 -1</clus>
<clus scale="   63.714">  2  6  1 -1</clus>
<clus scale="   76.938">  2  5  1 -1</clus>
<clus scale="   49.063">  1  3  2 -1</clus>
</clustering>
</event>
<event>
 6    0  0.6851428E+002  0.1219756E+03  0.7546771E-02  0.1239873E+00
         21   -1    0    0  504  502  0.00000000000E+00  0.00000000000E+00  0.58224240749E+03  0.58224240749E+03  0.00000000000E+00 0.  1.
         -1   -1    0    0    0  501 -0.00000000000E+00 -0.00000000000E+00 -0.26526256426E+03  0.26526256426E+03  0.00000000000E+00 0.  1.
         21    1    1    2  503  501  0.14268430708E+02 -0.50021537010E+02  0.39819497324E+02  0.65508279223E+02  0.00000000000E+00 0. -1.
         21    1    1    2  504  503 -0.20008945816E+02 -0.60754386704E+02  0.12582803945E+03  0.14115292745E+03  0.00000000000E+00 0.  1.
         21    1    1    2  505  502  0.37868209621E+02  0.61546003046E+01  0.38284672894E+03  0.38476421126E+03  0.00000000000E+00 0.  1.
         -1    1    1    2    0  505 -0.32127694513E+02  0.10462132341E+03 -0.23151442249E+03  0.25607955382E+03  0.00000000000E+00 0.  1.
<scales pt_clust_3="53.13726" pt_clust_4="53.13726" pt_clust_5="38.36509" pt_clust_6="109.14463"></scales>
<clustering>
<clus scale="   38.365">  1  5  2 -1</clus>
<clus scale="   53.137">  3  4 -1 -1</clus>
<clus scale="  109.145">  2  6  1 -1</clus>
<clus scale="   38.365">  1  3  2 -1</clus>
</clustering>
</event>
<event>
 6    0  0.6851428E+002  0.1271813E+03  0.7546771E-02  0.1231699E+00
         21   -1    0    0  505  502  0.00000000000E+00  0.00000000000E+00  0.20258290364E+03  0.20258290364E+03  0.00000000000E+00 0. -1.
         -4   -1    0    0    0  501 -0.00000000000E+00 -0.00000000000E+00 -0.24812523656E+03  0.24812523656E+03  0.00000000000E+00 0. -1.
         21    1    1    2  503  502  0.51454255370E+02  0.31226629493E+02 -0.72385775524E+02  0.94140019563E+02  0.00000000000E+00 0. -1.
         21    1    1    2  504  501  0.29095167805E+02 -0.87870268878E+01 -0.39116738917E+01  0.30643789318E+02  0.00000000000E+00 0. -1.
         21    1    1    2  505  504 -0.91084973843E+02 -0.71735163214E+02  0.15400220800E+03  0.19276692188E+03  0.00000000000E+00 0. -1.
         -4    1    1    2    0  503  0.10535550669E+02  0.49295560609E+02 -0.12324709151E+03  0.13315740944E+03  0.00000000000E+00 0. -1.
<scales pt_clust_3="48.32972" pt_clust_4="30.39310" pt_clust_5="114.49780" pt_clust_6="48.32972"></scales>
<clustering>
<clus scale="   30.393">  2  4  1 -1</clus>
<clus scale="   48.330">  3  6 -1 -1</clus>
<clus scale="  114.498">  1  5  2 -1</clus>
<clus scale="  114.498">  1  3  2 -1</clus>
</clustering>
</event>
<event>
 6    0  0.6851428E+002  0.3837713E+03  0.7546771E-02  0.1049549E+00
         21   -1    0    0  503  502  0.00000000000E+00  0.00000000000E+00  0.12081097766E+04  0.12081097766E+04  0.00000000000E+00 0.  1.
          2   -1    0    0  502    0 -0.00000000000E+00 -0.00000000000E+00 -0.17148404075E+04  0.17148404075E+04  0.00000000000E+00 0.  1.
         21    1    1    2  503  505 -0.33851260765E+03  0.41820679793E+02  0.11494964530E+04  0.11990337153E+04  0.00000000000E+00 0.  1.
         21    1    1    2  504  501  0.91677721670E+02 -0.77987963424E+02 -0.22091125298E+03  0.25157247223E+03  0.00000000000E+00 0.  1.
         21    1    1    2  505  504  0.21675349421E+03  0.66300895429E+02 -0.69973208226E+03  0.73552897491E+03  0.00000000000E+00 0.  1.
          2    1    1    2  501    0  0.30081391763E+02 -0.30133611797E+02 -0.73558374872E+03  0.73681502161E+03  0.00000000000E+00 0.  1.
<scales pt_clust_3="340.23769" pt_clust_4="130.19207" pt_clust_5="130.19207" pt_clust_6="42.57845"></scales>
<clustering>
<clus scale="   42.578">  2  6  1 -1</clus>
<clus scale="  130.192">  4  5 -1 -1</clus>
<clus scale="  340.238">  1  3  2 -1</clus>
<clus scale="  340.238">  1  3  2 -1</clus>
</clustering>
</event>
<event>
 6    0  0.6851428E+002  0.8224179E+02  0.7546771E-02  0.1322807E+00
          1   -1    0    0  505    0 -0.00000000000E+00  0.00000000000E+00  0.12863690665E+03  0.12863690665E+03  0.00000000000E+00 0. -1.
         21   -1    0    0  504  502  0.00000000000E+00 -0.00000000000E+00 -0.17678978744E+03  0.17678978744E+03  0.00000000000E+00 0. -1.
         21    1    1    2  503  502 -0.24236997418E+02  0.22711571436E+02 -0.25176256674E+02  0.41678428726E+02  0.00000000000E+00 0. -1.
         21    1    1    2  504  501 -0.33604335232E+02 -0.80906531962E+02 -0.71468178281E+02  0.11306112845E+03  0.00000000000E+00 0. -1.
         21    1    1    2  505  503  0.15400328180E+02  0.83566718490E+02  0.54787078129E+01  0.85150354001E+02  0.00000000000E+00 0. -1.
          1    1    1    2  501    0  0.42441004470E+02 -0.25371757963E+02  0.43012846347E+02  0.65536782904E+02  0.00000000000E+00 0. -1.
<scales pt_clust_3="33.21517" pt_clust_4="14000.00000" pt_clust_5="82.24179" pt_clust_6="46.90019"></scales>
<clustering>
<clus scale="   33.215">  2  3  1 -1</clus>
<clus scale="   46.900">  1  6  2 -1</clus>
<clus scale="   82.242">  1  5  2 -1</clus>
<clus scale="   33.215">  2  3  1 -1</clus>
</clustering>
</event>
<event>
 6    0  0.6851428E+002  0.9541297E+02  0.7546771E-02  0.1290249E+00
         21   -1    0    0  503  502  0.00000000000E+00  0.00000000000E+00  0.33681612777E+02  0.33681612777E+02  0.00000000000E+00 0.  1.
          1   -1    0    0  505    0 -0.00000000000E+00 -0.00000000000E+00 -0.19565133341E+04  0.19565133341E+04  0.00000000000E+00 0.  1.
         21    1    1    2  503  504  0.29272535529E+02 -0.56732002654E+02 -0.16452677534E+03  0.17647793422E+03  0.00000000000E+00 0. -1.
         21    1    1    2  504  501 -0.69356482651E+02 -0.72408315392E+01 -0.27533845631E+03  0.28403171803E+03  0.00000000000E+00 0.  1.
         21    1    1    2  505  502 -0.67792370545E+02  0.77978038753E+02 -0.10458647296E+03  0.14701942171E+03  0.00000000000E+00 0.  1.
          1    1    1    2  501    0  0.10787631767E+03 -0.14005204560E+02 -0.13783800168E+04  0.13826658730E+04  0.00000000000E+00 0.  1.
<scales pt_clust_3="63.83887" pt_clust_4="95.41297" pt_clust_5="57.02306" pt_clust_6="14000.00000"></scales>
<clustering>
<clus scale="   63.839">  1  3  2 -1</clus>
<clus scale="   57.023">  1  5  2 -1</clus>
<clus scale="   95.413">  1  4  2 -1</clus>
<clus scale="   63.839">  1  3  2 -1</clus>
</clustering>
</event>
<event>
 6    0  0.8239357E+002  0.1204074E+03  0.7546771E-02  0.1242427E+00
          2   -1    0    0  505    0 -0.00000000000E+00  0.00000000000E+00  0.32231580927E+03  0.32231580927E+03  0.00000000000E+00 0.  1.
         21   -1    0    0  504  502  0.00000000000E+00 -0.00000000000E+00 -0.93276111317E+03  0.93276111317E+03  0.00000000000E+00 0.  1.
         21    1    1    2  503  502  0.22860282964E+01  0.31456695359E+02 -0.27660011454E+02  0.41950278210E+02  0.00000000000E+00 0. -1.
         21    1    1    2  504  501 -0.93788592703E+02  0.55537159482E+02 -0.79478179774E+03  0.80222115544E+03  0.00000000000E+00 0.  1.
         21    1    1    2  505  503  0.45280588267E+02  0.24725893829E+02 -0.79815742636E+02  0.95038172710E+02  0.00000000000E+00 0.  1.
          2    1    1    2  501    0  0.46221976140E+02 -0.11171974867E+03  0.29181224794E+03  0.31586731608E+03  0.00000000000E+00 0.  1.
<scales pt_clust_3="31.53965" pt_clust_4="14000.00000" pt_clust_5="53.31738" pt_clust_6="120.40738"></scales>
<clustering>
<clus scale="   31.540">  2  3  1 -1</clus>
<clus scale="   53.317">  2  5  1 -1</clus>
<clus scale="  120.407">  1  6  2 -1</clus>
<clus scale="   31.540">  2  3  1 -1</clus>
</clustering>
</event>
<event>
 6    0  0.6851428E+002  0.1028086E+03  0.7546771E-02  0.1274498E+00
         21   -1    0    0  504  502  0.00000000000E+00  0.00000000000E+00  0.16235179775E+03  0.16235179775E+03  0.00000000000E+00 0. -1.
         -2   -1    0    0    0  501 -0.00000000000E+00 -0.00000000000E+00 -0.35564934143E+03  0.35564934143E+03  0.00000000000E+00 0.  1.
         21    1    1    2  503  502  0.10911511096E+03 -0.36956325722E+02  0.70375772673E+02  0.13499861788E+03  0.00000000000E+00 0. -1.
         21    1    1    2  504  505 -0.68674452591E+01 -0.32965791241E+02  0.21715651716E+02  0.40068375635E+02  0.00000000000E+00 0.  1.
         21    1    1    2  505  501 -0.78202065165E+02  0.12401913743E+02 -0.38028460550E+02  0.87838114007E+02  0.00000000000E+00 0.  1.
         -2    1    1    2    0  503 -0.24045600533E+02  0.57520203220E+02 -0.24736050753E+03  0.25509603166E+03  0.00000000000E+00 0.  1.
<scales pt_clust_3="14000.00000" pt_clust_4="33.67351" pt_clust_5="102.80858" pt_clust_6="61.52954"></scales>
<clustering>
<clus scale="   33.674">  1  4  2 -1</clus>
<clus scale="   61.530">  2  6  1 -1</clus>
<clus scale="  102.809">  2  5  1 -1</clus>
<clus scale="   33.674">  1  3  2 -1</clus>
</clustering>
</event>
<event>
 6    0  0.6851428E+002  0.2808642E+03  0.7546771E-02  0.1095218E+00
          2   -1    0    0  504    0 -0.00000000000E+00  0.00000000000E+00  0.22436891986E+04  0.22436891986E+04  0.00000000000E+00 0. -1.
         21   -1    0    0  503  502  0.00000000000E+00 -0.00000000000E+00 -0.83518685637E+02  0.83518685637E+02  0.00000000000E+00 0. -1.
         21    1    1    2  503  501 -0.23873037488E+02  0.34556270622E+02 -0.30139306244E+02  0.51695604640E+02  0.00000000000E+00 0. -1.
         21    1    1    2  504  505  0.10863182575E+03  0.13323425623E+03  0.88443326576E+03  0.90098526191E+03  0.00000000000E+00 0. -1.
         21    1    1    2  505  502  0.33626533024E+02  0.97140998823E+02  0.63952393550E+03  0.64773295535E+03  0.00000000000E+00 0. -1.
          2    1    1    2  501    0 -0.11838532129E+03 -0.26493152568E+03  0.66635261795E+03  0.72679406233E+03  0.00000000000E+00 0. -1.
<scales pt_clust_3="42.00069" pt_clust_4="40.71616" pt_clust_5="40.71616" pt_clust_6="275.88468"></scales>
<clustering>
<clus scale="   40.716">  4  5 -1 -1</clus>
<clus scale="   42.001">  2  3  1 -1</clus>
<clus scale="  275.885">  2  6  1 -1</clus>
<clus scale="   42.001">  2  3  1 -1</clus>
</clustering>
</event>
<event>
 6    0  0.6851428E+002  0.1989161E+03  0.7546771E-02  0.1150657E+00
         21   -1    0    0  503  502  0.00000000000E+00  0.00000000000E+00  0.17010316930E+03  0.17010316930E+03  0.00000000000E+00 0.  1.
          1   -1    0    0  502    0 -0.00000000000E+00 -0.00000000000E+00 -0.69222045730E+03  0.69222045730E+03  0.00000000000E+00 0.  1.
         21    1    1    2  503  504 -0.12104832422E+02  0.27586496301E+02  0.28370484823E+02  0.41381471158E+02  0.00000000000E+00 0.  1.
         21    1    1    2  504  505 -0.16306168819E+03  0.10696344866E+03 -0.52427904350E+02  0.20193805649E+03  0.00000000000E+00 0.  1.
         21    1    1    2  505  501  0.76873015650E+02 -0.20180315972E+03 -0.18606944700E+03  0.28505405612E+03  0.00000000000E+00 0. -1.
          1    1    1    2  501    0  0.98293504964E+02  0.67253214758E+02 -0.31199042148E+03  0.33395004283E+03  0.00000000000E+00 0.  1.
<scales pt_clust_3="30.12543" pt_clust_4="198.91614" pt_clust_5="14000.00000" pt_clust_6="119.57698"></scales>
<clustering>
<clus scale="   30.125">  1  3  2 -1</clus>
<clus scale="  119.577">  2  6  1 -1</clus>
<clus scale="  198.916">  1  4  2 -1</clus>
<clus scale="   30.125">  1  3  2 -1</clus>
</clustering>
</event>
<event>
 6    0  0.6851428E+002  0.1880675E+03  0.7546771E-02  0.1160216E+00
          2   -1    0    0  503    0 -0.00000000000E+00  0.00000000000E+00  0.38720791547E+04  0.38720791547E+04  0.00000000000E+00 0. -1.
         21   -1    0    0  501  502  0.00000000000E+00 -0.00000000000E+00 -0.30503169334E+02  0.30503169334E+02  0.00000000000E+00 0.  1.
         21    1    1    2  503  504 -0.89179487691E+02  0.99752354940E+00  0.15224834037E+03  0.17644697000E+03  0.00000000000E+00 0.  1.
         21    1    1    2  504  505 -0.42603457418E+02  0.36137288153E+02  0.47701336666E+02  0.73460027898E+02  0.00000000000E+00 0.  1.
         21    1    1    2  505  502 -0.32303615440E+02  0.41681879912E+02  0.22083496806E+03  0.22704401732E+03  0.00000000000E+00 0. -1.
          2    1    1    2  501    0  0.16408656055E+03 -0.78816691614E+02  0.34207913402E+04  0.34256313088E+04  0.00000000000E+00 0. -1.
<scales pt_clust_3="48.32343" pt_clust_4="48.32343" pt_clust_5="52.73426" pt_clust_6="177.88052"></scales>
<clustering>
<clus scale="   48.323">  3  4 -1 -1</clus>
<clus scale="   52.734">  2  5  1 -1</clus>
<clus scale="  177.881">  1  6  2 -1</clus>
<clus scale="   52.734">  2  3  1 -1</clus>
</clustering>
</event>
<event>
 6    0  0.6851428E+002  0.1185165E+03  0.7546771E-02  0.1245565E+00
         21   -1    0    0  505  502  0.00000000000E+00  0.00000000000E+00  0.28574319050E+02  0.28574319050E+02  0.00000000000E+00 0.  1.
          1   -1    0    0  503    0 -0.00000000000E+00 -0.00000000000E+00 -0.41718130174E+04  0.41718130174E+04  0.00000000000E+00 0. -1.
         21    1    1    2  503  504  0.59667566544E+02  0.10352778021E+03 -0.76131585315E+03  0.77063613206E+03  0.00000000000E+00 0.  1.
         21    1    1    2  504  502 -0.68644540138E+02  0.46999544977E+02 -0.20924597521E+03  0.22517750390E+03  0.00000000000E+00 0.  1.
         21    1    1    2  505  501  0.43873316914E+02 -0.36897812569E+02 -0.40612367273E+02  0.70254401179E+02  0.00000000000E+00 0. -1.
          1    1    1    2  501    0 -0.34896343320E+02 -0.11362951262E+03 -0.31320645027E+04  0.31343192993E+04  0.00000000000E+00 0. -1.
<scales pt_clust_3="118.51647" pt_clust_4="50.25908" pt_clust_5="57.32640" pt_clust_6="14000.00000"></scales>
<clustering>
<clus scale="   57.326">  1  5  2 -1</clus>
<clus scale="   50.259">  1  4  2 -1</clus>
<clus scale="  118.516">  1  3  2 -1</clus>
<clus scale="   57.326">  1  3  2 -1</clus>
</clustering>
</event>
<event>
 6    0  0.6851428E+002  0.1910622E+03  0.7546771E-02  0.1157507E+00
         21   -1    0    0  501  502  0.00000000000E+00  0.00000000000E+00  0.13922723302E+04  0.13922723302E+04  0.00000000000E+00 0. -1.
          1   -1    0    0  503    0 -0.00000000000E+00 -0.00000000000E+00 -0.52650928079E+03  0.52650928079E+03  0.00000000000E+00 0.  1.
         21    1    1    2  503  504  0.31513512352E+02 -0.11476033062E+03  0.78248487927E+02  0.14242844100E+03  0.00000000000E+00 0. -1.
         21    1    1    2  504  505 -0.34728148740E+02 -0.41294992440E+02  0.30020250425E+02  0.61745737918E+02  0.00000000000E+00 0. -1.
         21    1    1    2  505  502 -0.31915786569E+02 -0.18571030890E+02  0.12191865463E+04  0.12197456027E+04  0.00000000000E+00 0. -1.
          1    1    1    2  501    0  0.35130422957E+02  0.17462635395E+03 -0.46169223523E+03  0.49486182939E+03  0.00000000000E+00 0.  1.
<scales pt_clust_3="52.80402" pt_clust_4="52.80402" pt_clust_5="36.92561" pt_clust_6="175.79356"></scales>
<clustering>
<clus scale="   36.926">  1  5  2 -1</clus>
<clus scale="   52.804">  3  4 -1 -1</clus>
<clus scale="  175.794">  2  6  1 -1</clus>
<clus scale="   36.926">  1  3  2 -1</clus>
</clustering>
</event>
<event>
 6    0  0.6851428E+002  0.6855791E+02  0.7546771E-02  0.1365067E+00
         21   -1    0    0  505  502  0.00000000000E+00  0.00000000000E+00  0.16561765481E+04  0.16561765481E+04  0.00000000000E+00 0.  1.
         -1   -1    0    0    0  501 -0.00000000000E+00 -0.00000000000E+00 -0.12362521817E+03  0.12362521817E+03  0.00000000000E+00 0. -1.
         21    1    1    2  503  502  0.80209441422E+01  0.57456519318E+02  0.11831710731E+04  0.11845924934E+04  0.00000000000E+00 0.  1.
         21    1    1    2  504  503  0.48889468671E+02 -0.73803406317E+02  0.17461987523E+03  0.19577850688E+03  0.00000000000E+00 0.  1.
         21    1    1    2  505  501 -0.53705941429E+02 -0.51652193226E+02  0.27127577183E+03  0.28132333993E+03  0.00000000000E+00 0.  1.
         -1    1    1    2    0  504 -0.32044713842E+01  0.67999080226E+02 -0.96515390214E+02  0.11810742609E+03  0.00000000000E+00 0. -1.
<scales pt_clust_3="58.01368" pt_clust_4="68.55791" pt_clust_5="52.22782" pt_clust_6="14000.00000"></scales>
<clustering>
<clus scale="   58.014">  1  3  2 -1</clus>
<clus scale="   52.228">  1  5  2 -1</clus>
<clus scale="   68.558">  1  4  2 -1</clus>
<clus scale="   58.014">  1  3  2 -1</clus>
</clustering>
</event>
<event>
 6    0  0.6851428E+002  0.1195980E+03  0.7546771E-02  0.1243762E+00
         21   -1    0    0  505  502  0.00000000000E+00  0.00000000000E+00  0.17179278270E+03  0.17179278270E+03  0.00000000000E+00 0.  1.
         -3   -1    0    0    0  501 -0.00000000000E+00 -0.00000000000E+00 -0.16994335267E+04  0.16994335267E+04  0.00000000000E+00 0.  1.
         21    1    1    2  503  504  0.12779584459E+03 -0.65116236164E+02 -0.20244071650E+03  0.24810107981E+03  0.00000000000E+00 0.  1.
         21    1    1    2  504  502 -0.79319663097E+02  0.24030021621E+02  0.11545610357E+03  0.14212375855E+03  0.00000000000E+00 0.  1.
         21    1    1    2  505  501 -0.14814321684E+03  0.45856304975E+02 -0.31675462710E+03  0.35267932629E+03  0.00000000000E+00 0.  1.
         -3    1    1    2    0  503  0.99667035351E+02 -0.47700904322E+01 -0.11239015039E+04  0.11283221447E+04  0.00000000000E+00 0.  1.
<scales pt_clust_3="14000.00000" pt_clust_4="82.87974" pt_clust_5="119.59803" pt_clust_6="95.65539"></scales>
<clustering>
<clus scale="   82.880">  1  4  2 -1</clus>
<clus scale="   95.655">  2  6  1 -1</clus>
<clus scale="  119.598">  2  5  1 -1</clus>
<clus scale="   82.880">  1  3  2 -1</clus>
</clustering>
</event>
<event>
 6    0  0.6851428E+002  0.1597477E+03  0.7546771E-02  0.1188982E+00
         21   -1    0    0  505  502  0.00000000000E+00  0.00000000000E+00  0.10915690156E+03  0.10915690156E+03  0.00000000000E+00 0.  1.
          2   -1    0    0  504    0 -0.00000000000E+00 -0.00000000000E+00 -0.24390046425E+04  0.24390046425E+04  0.00000000000E+00 0.  1.
         21    1    1    2  503  501  0.40216290145E+02  0.18359703497E+03 -0.27601128342E+03  0.33392731218E+03  0.00000000000E+00 0. -1.
         21    1    1    2  504  502 -0.43508964152E+02  0.31721641595E+01  0.47942918472E+02  0.64819873640E+02  0.00000000000E+00 0.  1.
         21    1    1    2  505  503 -0.23979138528E+02 -0.13673426737E+03 -0.18254246545E+03  0.22933166081E+03  0.00000000000E+00 0.  1.
          2    1    1    2  501    0  0.27271812535E+02 -0.50034931761E+02 -0.19192369106E+04  0.19200826974E+04  0.00000000000E+00 0.  1.
<scales pt_clust_3="14000.00000" pt_clust_4="43.62445" pt_clust_5="159.74775" pt_clust_6="56.79620"></scales>
<clustering>
<clus scale="   43.624">  1  4  2 -1</clus>
<clus scale="   56.796">  2  6  1 -1</clus>
<clus scale="  159.748">  1  5  2 -1</clus>
<clus scale="   43.624">  1  3  2 -1</clus>
</clustering>
</event>
<event>
 6    0  0.6851428E+002  0.1162068E+03  0.7546771E-02  0.1249489E+00
         21   -1    0    0  505  502  0.00000000000E+00  0.00000000000E+00  0.87749753877E+03  0.87749753877E+03  0.00000000000E+00 0.  1.
         -3   -1    0    0    0  501 -0.00000000000E+00 -0.00000000000E+00 -0.59704374004E+03  0.59704374004E+03  0.00000000000E+00 0. -1.
         21    1    1    2  503  504  0.59377389446E+02 -0.16382940309E+02  0.51463026029E+03  0.51830336669E+03  0.00000000000E+00 0.  1.
         21    1    1    2  504  502 -0.26992289193E+01  0.38250445086E+02  0.26173532355E+03  0.26452932159E+03  0.00000000000E+00 0.  1.
         21    1    1    2  505  501  0.59171015186E+02  0.94640822776E+01  0.81947183006E+02  0.10151905582E+03  0.00000000000E+00 0.  1.
         -3    1    1    2    0  503 -0.11584917571E+03 -0.31331587055E+02 -0.57785896812E+03  0.59018953472E+03  0.00000000000E+00 0. -1.
<scales pt_clust_3="59.24629" pt_clust_4="38.34557" pt_clust_5="116.20680" pt_clust_6="14000.00000"></scales>
<clustering>
<clus scale="   38.346">  1  4  2 -1</clus>
<clus scale="   59.246">  1  3  2 -1</clus>
<clus scale="  116.207">  1  5  2 -1</clus>
<clus scale="   38.346">  1  3  2 -1</clus>
</clustering>
</event>
<event>
 6    0  0.6851428E+002  0.1497653E+03  0.7546771E-02  0.1200762E+00
         21   -1    0    0  505  502  0.00000000000E+00  0.00000000000E+00  0.12411497655E+03  0.12411497655E+03  0.00000000000E+00 0.  1.
          2   -1    0    0  503    0 -0.00000000000E+00 -0.00000000000E+00 -0.92787897270E+03  0.92787897270E+03  0.00000000000E+00 0.  1.
         21    1    1    2  503  504 -0.65007276082E+02 -0.15079047725E+02 -0.84546346097E+02  0.10770983364E+03  0.00000000000E+00 0.  1.
         21    1    1    2  504  502  0.54726567870E+02  0.53179555034E+02 -0.14153929487E+03  0.16079936037E+03  0.00000000000E+00 0.  1.
         21    1    1    2  505  501 -0.40463918535E+02 -0.14730231716E+03  0.36956102191E+02  0.15716569229E+03  0.00000000000E+00 0.  1.
          2    1    1    2  501    0  0.50744626747E+02  0.10920180985E+03 -0.61463445738E+03  0.62631906295E+03  0.00000000000E+00 0.  1.
<scales pt_clust_3="66.73323" pt_clust_4="66.22307" pt_clust_5="149.76528" pt_clust_6="14000.00000"></scales>
<clustering>
<clus scale="   66.733">  2  3  1 -1</clus>
<clus scale="   66.223">  2  4  1 -1</clus>
<clus scale="  149.765">  1  5  2 -1</clus>
<clus scale="  149.765">  1  3  2 -1</clus>
</clustering>
</event>
<event>
 6    0  0.6851428E+002  0.2050725E+03  0.7546771E-02  0.1145529E+00
         21   -1    0    0  505  502  0.00000000000E+00  0.00000000000E+00  0.20193453870E+03  0.20193453870E+03  0.00000000000E+00 0.  1.
         -3   -1    0    0    0  501 -0.00000000000E+00 -0.00000000000E+00 -0.33001400139E+03  0.33001400139E+03  0.00000000000E+00 0.  1.
         21    1    1    2  503  502 -0.35654986561E+02  0.72776204594E+02  0.52686058688E+02  0.96661651144E+02  0.00000000000E+00 0.  1.
         21    1    1    2  504  503  0.31219379124E+00  0.12744963712E+03 -0.13421353850E+02  0.12815475101E+03  0.00000000000E+00 0.  1.
         21    1    1    2  505  501  0.14337142406E+02 -0.16535456199E+03 -0.36283509506E+02  0.16989460817E+03  0.00000000000E+00 0.  1.
         -3    1    1    2    0  504  0.21005650364E+02 -0.34871279724E+02 -0.13106065802E+03  0.13723752977E+03  0.00000000000E+00 0.  1.
<scales pt_clust_3="71.34705" pt_clust_4="71.34705" pt_clust_5="185.45493" pt_clust_6="40.70926"></scales>
<clustering>
<clus scale="   40.709">  2  6  1 -1</clus>
<clus scale="   71.347">  3  4 -1 -1</clus>
<clus scale="  185.455">  2  5  1 -1</clus>
<clus scale="  205.072">  1  3  2 -1</clus>
</clustering>
</event>
<event>
 6    0  0.6851428E+002  0.1859128E+03  0.7546771E-02  0.1162200E+00
          2   -1    0    0  503    0 -0.00000000000E+00  0.00000000000E+00  0.44115232684E+03  0.44115232684E+03  0.00000000000E+00 0.  1.
         21   -1    0    0  504  502  0.00000000000E+00 -0.00000000000E+00 -0.23151125747E+03  0.23151125747E+03  0.00000000000E+00 0. -1.
         21    1    1    2  503  505  0.20760688724E+02 -0.14707156524E+03  0.59202802697E+02  0.15989378770E+03  0.00000000000E+00 0.  1.
         21    1    1    2  504  501 -0.43780632926E+02  0.15568235853E+03 -0.10805593323E+03  0.19449890818E+03  0.00000000000E+00 0. -1.
         21    1    1    2  505  502  0.42902630331E+02 -0.85062263424E+02  0.85151274323E+02  0.12777700837E+03  0.00000000000E+00 0.  1.
          2    1    1    2  501    0 -0.19882686130E+02  0.76451470136E+02  0.17334292558E+03  0.19049388007E+03  0.00000000000E+00 0.  1.
<scales pt_clust_3="50.50815" pt_clust_4="174.88941" pt_clust_5="50.50815" pt_clust_6="78.99461"></scales>
<clustering>
<clus scale="   50.508">  3  5 -1 -1</clus>
<clus scale="   78.995">  1  6  2 -1</clus>
<clus scale="  174.889">  2  4  1 -1</clus>
<clus scale="  174.889">  2  3  1 -1</clus>
</clustering>
</event>
<event>
 6    0  0.6851428E+002  0.2209554E+03  0.7546771E-02  0.1133173E+00
         21   -1    0    0  505  502  0.00000000000E+00  0.00000000000E+00  0.35784829558E+03  0.35784829558E+03  0.00000000000E+00 0.  1.
          2   -1    0    0  504    0 -0.00000000000E+00 -0.00000000000E+00 -0.10147941644E+04  0.10147941644E+04  0.00000000000E+00 0.  1.
         21    1    1    2  503  502 -0.18347739155E+01  0.35238951752E+02  0.17094166608E+02  0.39209190860E+02  0.00000000000E+00 0.  1.
         21    1    1    2  504  503 -0.19884824899E+03  0.46188287631E+02 -0.14007559932E+02  0.20462208037E+03  0.00000000000E+00 0.  1.
         21    1    1    2  505  501  0.22669424056E+03 -0.64893018985E+02  0.17472839624E+03  0.29348150720E+03  0.00000000000E+00 0.  1.
          2    1    1    2  501    0 -0.26011217655E+02 -0.16534220399E+02 -0.83476087171E+03  0.83532968152E+03  0.00000000000E+00 0.  1.
<scales pt_clust_3="34.39378" pt_clust_4="14000.00000" pt_clust_5="220.95538" pt_clust_6="30.82148"></scales>
<clustering>
<clus scale="   30.821">  2  6  1 -1</clus>
<clus scale="   34.394">  1  3  2 -1</clus>
<clus scale="  220.955">  1  5  2 -1</clus>
<clus scale="   34.394">  1  3  2 -1</clus>
</clustering>
</event>
<event>
 6    0  0.6851428E+002  0.1134189E+03  0.7546771E-02  0.1254366E+00
          1   -1    0    0  503    0 -0.00000000000E+00  0.00000000000E+00  0.24231202913E+04  0.24231202913E+04  0.00000000000E+00 0.  1.
         21   -1    0    0  505  502  0.00000000000E+00 -0.00000000000E+00 -0.55864040158E+03  0.55864040158E+03  0.00000000000E+00 0.  1.
         21    1    1    2  503  504 -0.34916256136E+02  0.38095248012E+02  0.10103246185E+03  0.11348106102E+03  0.00000000000E+00 0. -1.
         21    1    1    2  504  502 -0.84030418272E+01  0.71071932295E+02 -0.17788057241E+03  0.19173765596E+03  0.00000000000E+00 0.  1.
         21    1    1    2  505  501  0.60957409794E+02 -0.17070546504E+03 -0.34478703513E+03  0.38953082189E+03  0.00000000000E+00 0.  1.
          1    1    1    2  501    0 -0.17638111831E+02  0.61538284736E+02  0.22861150354E+04  0.22870111540E+04  0.00000000000E+00 0.  1.
<scales pt_clust_3="51.67584" pt_clust_4="71.69247" pt_clust_5="113.41891" pt_clust_6="14000.00000"></scales>
<clustering>
<clus scale="   51.676">  1  3  2 -1</clus>
<clus scale="   71.692">  2  4  1 -1</clus>
<clus scale="  113.419">  2  5  1 -1</clus>
<clus scale="   71.692">  2  3  1 -1</clus>
</clustering>
</event>
<event>
 6    0  0.6851428E+002  0.9909466E+02  0.7546771E-02  0.1282211E+00
          2   -1    0    0  505    0 -0.00000000000E+00  0.00000000000E+00  0.38719651098E+03  0.38719651098E+03  0.00000000000E+00 0. -1.
         21   -1    0    0  503  502  0.00000000000E+00 -0.00000000000E+00 -0.42705990156E+03  0.42705990156E+03  0.00000000000E+00 0. -1.
         21    1    1    2  503  504  0.35440707500E+02 -0.72232189065E+01  0.17469324664E+02  0.40167100265E+02  0.00000000000E+00 0. -1.
         21    1    1    2  504  501  0.74242863168E+02  0.75796795022E+02 -0.42141594054E+02  0.11416247552E+03  0.00000000000E+00 0. -1.
         21    1    1    2  505  502 -0.24985025545E+02 -0.17860225455E+02 -0.32926968537E+03  0.33069890363E+03  0.00000000000E+00 0. -1.
          2    1    1    2  501    0 -0.84698545123E+02 -0.50713350660E+02  0.31407856418E+03  0.32922793313E+03  0.00000000000E+00 0. -1.
<scales pt_clust_3="33.82653" pt_clust_4="99.09466" pt_clust_5="30.71220" pt_clust_6="14000.00000"></scales>
<clustering>
<clus scale="   30.712">  2  5  1 -1</clus>
<clus scale="   33.827">  2  3  1 -1</clus>
<clus scale="   99.095">  2  4  1 -1</clus>
<clus scale="   30.712">  2  3  1 -1</clus>
</clustering>
</event>
<event>
 6    0  0.6851428E+002  0.1545107E+03  0.7546771E-02  0.1195037E+00
         21   -1    0    0  504  502  0.00000000000E+00  0.00000000000E+00  0.26634161433E+03  0.26634161433E+03  0.00000000000E+00 0.  1.
          2   -1    0    0  505    0 -0.00000000000E+00 -0.00000000000E+00 -0.27651219642E+04  0.27651219642E+04  0.00000000000E+00 0. -1.
         21    1    1    2  503  502  0.28457054376E+02 -0.14188690391E+02  0.92452865811E+02  0.97768375641E+02  0.00000000000E+00 0.  1.
         21    1    1    2  504  501 -0.56411305269E+02  0.53035599427E+02  0.51927555117E+02  0.93228113513E+02  0.00000000000E+00 0.  1.
         21    1    1    2  505  503 -0.32727911216E+02 -0.18033232930E+03  0.93271960107E+01  0.18351529023E+03  0.00000000000E+00 0.  1.
          2    1    1    2  501    0  0.60682162108E+02  0.14148542026E+03 -0.26524879668E+04  0.26569517992E+04  0.00000000000E+00 0. -1.
<scales pt_clust_3="31.79816" pt_clust_4="64.63676" pt_clust_5="154.51071" pt_clust_6="14000.00000"></scales>
<clustering>
<clus scale="   31.798">  1  3  2 -1</clus>
<clus scale="   64.637">  1  4  2 -1</clus>
<clus scale="  154.511">  1  5  2 -1</clus>
<clus scale="   31.798">  1  3  2 -1</clus>
</clustering>
</event>
<event>
 6    0  0.6851428E+002  0.1077149E+03  0.7546771E-02  0.1264861E+00
          2   -1    0    0  504    0 -0.00000000000E+00  0.00000000000E+00  0.29010384244E+04  0.29010384244E+04  0.00000000000E+00 0.  1.
         21   -1    0    0  505  502  0.00000000000E+00 -0.00000000000E+00 -0.16059441093E+02  0.16059441093E+02  0.00000000000E+00 0. -1.
         21    1    1    2  503  502  0.79813763976E+02 -0.93840910188E+01  0.56514408491E+03  0.57082933947E+03  0.00000000000E+00 0. -1.
         21    1    1    2  504  503 -0.61743684279E+02  0.11955567578E+03  0.51771358552E+03  0.53491419760E+03  0.00000000000E+00 0. -1.
         21    1    1    2  505  501 -0.64896085958E+02 -0.19689617593E+02  0.41577739218E+03  0.42127191084E+03  0.00000000000E+00 0. -1.
          2    1    1    2  501    0  0.46826006261E+02 -0.90481967172E+02  0.13863439207E+04  0.13900824176E+04  0.00000000000E+00 0.  1.
<scales pt_clust_3="67.34136" pt_clust_4="14000.00000" pt_clust_5="67.81728" pt_clust_6="107.71487"></scales>
<clustering>
<clus scale="   67.817">  2  5  1 -1</clus>
<clus scale="   67.341">  2  3  1 -1</clus>
<clus scale="  107.715">  1  6  2 -1</clus>
<clus scale="   67.817">  2  3  1 -1</clus>
</clustering>
</event>
<event>
 6    0  0.6851428E+002  0.6570391E+02  0.7546771E-02  0.1375343E+00
         21   -1    0    0  504  502  0.00000000000E+00  0.00000000000E+00  0.12876524839E+04  0.12876524839E+04  0.00000000000E+00 0.  1.
         -2   -1    0    0    0  501 -0.00000000000E+00 -0.00000000000E+00 -0.67015979463E+02  0.67015979463E+02  0.00000000000E+00 0.  1.
         21    1    1    2  503  502 -0.17613758578E+02  0.33497481246E+02  0.84644301019E+03  0.84728867291E+03  0.00000000000E+00 0.  1.
         21    1    1    2  504  505  0.38699065973E+02  0.13011481350E+02  0.11938251546E+03  0.12617092118E+03  0.00000000000E+00 0.  1.
         21    1    1    2  505  501 -0.71627104986E+02 -0.84204508503E+02  0.28904478747E+03  0.30946361754E+03  0.00000000000E+00 0.  1.
         -2    1    1    2    0  503  0.50541797591E+02  0.37695545907E+02 -0.34233808699E+02  0.71745251711E+02  0.00000000000E+00 0.  1.
<scales pt_clust_3="37.84608" pt_clust_4="40.51075" pt_clust_5="14000.00000" pt_clust_6="65.70391"></scales>
<clustering>
<clus scale="   37.846">  1  3  2 -1</clus>
<clus scale="   40.511">  1  4  2 -1</clus>
<clus scale="   65.704">  2  6  1 -1</clus>
<clus scale="   37.846">  1  3  2 -1</clus>
</clustering>
</event>
<event>
 6    0  0.6851428E+002  0.9092501E+02  0.7546771E-02  0.1300627E+00
         21   -1    0    0  505  502  0.00000000000E+00  0.00000000000E+00  0.92140202658E+02  0.92140202658E+02  0.00000000000E+00 0. -1.
          2   -1    0    0  504    0 -0.00000000000E+00 -0.00000000000E+00 -0.11625504149E+04  0.11625504149E+04  0.00000000000E+00 0. -1.
         21    1    1    2  503  501  0.47554212005E+02 -0.74416655039E+02 -0.57774751130E+02  0.10553276029E+03  0.00000000000E+00 0. -1.
         21    1    1    2  504  502 -0.13247463769E+02 -0.29542867735E+02 -0.44842477518E+01  0.32686156217E+02  0.00000000000E+00 0. -1.
         21    1    1    2  505  503  0.33028435496E+02  0.11541094120E+03 -0.15003363826E+02  0.12097794768E+03  0.00000000000E+00 0.  1.
          2    1    1    2  501    0 -0.67335183733E+02 -0.11451418425E+02 -0.99314784957E+03  0.99549375340E+03  0.00000000000E+00 0. -1.
<scales pt_clust_3="14000.00000" pt_clust_4="32.37710" pt_clust_5="90.92501" pt_clust_6="68.57392"></scales>
<clustering>
<clus scale="   32.377">  1  4  2 -1</clus>
<clus scale="   68.574">  2  6  1 -1</clus>
<clus scale="   90.925">  1  5  2 -1</clus>
<clus scale="   32.377">  1  3  2 -1</clus>
</clustering>
</event>
<event>
 6    0  0.6851428E+002  0.8654183E+02  0.7546771E-02  0.1311449E+00
         21   -1    0    0  504  502  0.00000000000E+00  0.00000000000E+00  0.75053894883E+02  0.75053894883E+02  0.00000000000E+00 0.  1.
          2   -1    0    0  505    0 -0.00000000000E+00 -0.00000000000E+00 -0.67219237783E+03  0.67219237783E+03  0.00000000000E+00 0. -1.
         21    1    1    2  503  502 -0.18998073232E+02 -0.27249443448E+02  0.37505661236E+02  0.50101233313E+02  0.00000000000E+00 0.  1.
         21    1    1    2  504  501 -0.23795892727E+02 -0.56064061156E+02 -0.34116782269E+02  0.69809585992E+02  0.00000000000E+00 0.  1.
         21    1    1    2  505  503  0.84277465336E+02  0.86329273656E+02 -0.29088272428E+03  0.31490981874E+03  0.00000000000E+00 0.  1.
          2    1    1    2  501    0 -0.41483499377E+02 -0.30157690521E+01 -0.30964463763E+03  0.31242563466E+03  0.00000000000E+00 0. -1.
<scales pt_clust_3="33.21835" pt_clust_4="86.54183" pt_clust_5="14000.00000" pt_clust_6="42.53948"></scales>
<clustering>
<clus scale="   33.218">  1  3  2 -1</clus>
<clus scale="   42.539">  2  6  1 -1</clus>
<clus scale="   86.542">  1  4  2 -1</clus>
<clus scale="   33.218">  1  3  2 -1</clus>
</clustering>
</event>
<event>
 6    0  0.6851428E+002  0.2476808E+03  0.7546771E-02  0.1114779E+00
          1   -1    0    0  505    0 -0.00000000000E+00  0.00000000000E+00  0.31032259858E+03  0.31032259858E+03  0.00000000000E+00 0.  1.
         21   -1    0    0  501  502  0.00000000000E+00 -0.00000000000E+00 -0.74625434271E+03  0.74625434271E+03  0.00000000000E+00 0. -1.
         21    1    1    2  503  504 -0.63811505521E+02 -0.99500958621E+01  0.54137097041E+02  0.84271809762E+02  0.00000000000E+00 0. -1.
         21    1    1    2  504  502  0.35034525502E+02 -0.31510520897E+02 -0.54380262670E+03  0.54584029506E+03  0.00000000000E+00 0. -1.
         21    1    1    2  505  503 -0.13508080080E+03 -0.12303299429E+03  0.65211870973E+02  0.19400136222E+03  0.00000000000E+00 0. -1.
          1    1    1    2  501    0  0.16385778082E+03  0.16449361105E+03 -0.11478085437E+02  0.23246347424E+03  0.00000000000E+00 0.  1.
<scales pt_clust_3="45.85642" pt_clust_4="47.12039" pt_clust_5="45.85642" pt_clust_6="235.36489"></scales>
<clustering>
<clus scale="   45.856">  3  5 -1 -1</clus>
<clus scale="   47.120">  2  4  1 -1</clus>
<clus scale="  235.365">  2  6  1 -1</clus>
<clus scale="   47.120">  2  3  1 -1</clus>
</clustering>
</event>
<event>
 6    0  0.8614954E+002  0.1358738E+03  0.7546771E-02  0.1218991E+00
         21   -1    0    0  503  502  0.00000000000E+00  0.00000000000E+00  0.13739640163E+04  0.13739640163E+04  0.00000000000E+00 0.  1.
          2   -1    0    0  504    0 -0.00000000000E+00 -0.00000000000E+00 -0.21498884107E+04  0.21498884107E+04  0.00000000000E+00 0.  1.
         21    1    1    2  503  505 -0.47774920383E+02  0.74497163342E+02  0.63676513942E+03  0.64288576990E+03  0.00000000000E+00 0.  1.
         21    1    1    2  504  502  0.34288170555E+02  0.71562616089E+00  0.49081161253E+02  0.59876131728E+02  0.00000000000E+00 0.  1.
         21    1    1    2  505  501 -0.47472510561E+02  0.40174167797E+02  0.67624361063E+03  0.67909721243E+03  0.00000000000E+00 0.  1.
          2    1    1    2  501    0  0.60959260389E+02 -0.11538695730E+03 -0.21380143057E+04  0.21419933130E+04  0.00000000000E+00 0.  1.
<scales pt_clust_3="31.64923" pt_clust_4="34.29564" pt_clust_5="31.64923" pt_clust_6="130.52294"></scales>
<clustering>
<clus scale="   31.649">  3  5 -1 -1</clus>
<clus scale="   34.296">  1  4  2 -1</clus>
<clus scale="  130.523">  2  6  1 -1</clus>
<clus scale="   34.296">  1  3  2 -1</clus>
</clustering>
</event>
<event>
 6    0  0.6851428E+002  0.4230915E+03  0.7546771E-02  0.1036065E+00
         21   -1    0    0  501  502  0.00000000000E+00  0.00000000000E+00  0.87702059323E+02  0.87702059323E+02  0.00000000000E+00 0. -1.
          2   -1    0    0  504    0 -0.00000000000E+00 -0.00000000000E+00 -0.24324412335E+04  0.24324412335E+04  0.00000000000E+00 0.  1.
         21    1    1    2  503  505 -0.96785687838E+02 -0.11570015455E+03 -0.21045690688E+03  0.25893262596E+03  0.00000000000E+00 0. -1.
         21    1    1    2  504  503 -0.16423104218E+03 -0.50658135889E+02 -0.32349030542E+03  0.36631142441E+03  0.00000000000E+00 0. -1.
         21    1    1    2  505  502 -0.17754920476E+02 -0.81521231046E+02 -0.55031072300E+02  0.99946822015E+02  0.00000000000E+00 0.  1.
          2    1    1    2  501    0  0.27877165050E+03  0.24787952148E+03 -0.17557608895E+04  0.17949524204E+04  0.00000000000E+00 0.  1.
<scales pt_clust_3="149.88727" pt_clust_4="149.88727" pt_clust_5="59.00549" pt_clust_6="373.03872"></scales>
<clustering>
<clus scale="   59.005">  3  5 -1 -1</clus>
<clus scale="  149.887">  3  4 -1 -1</clus>
<clus scale="  373.039">  2  6  1 -1</clus>
<clus scale="  423.091">  1  3  2 -1</clus>
</clustering>
</event>
<event>
 6    0  0.6851428E+002  0.1212837E+03  0.7546771E-02  0.1240994E+00
         21   -1    0    0  501  502  0.00000000000E+00  0.00000000000E+00  0.99411765972E+03  0.99411765972E+03  0.00000000000E+00 0. -1.
          2   -1    0    0  503    0 -0.00000000000E+00 -0.00000000000E+00 -0.52751729857E+03  0.52751729857E+03  0.00000000000E+00 0. -1.
         21    1    1    2  503  505  0.35082296104E+02 -0.38885055167E+02  0.12912857710E+03  0.13934491178E+03  0.00000000000E+00 0.  1.
         21    1    1    2  504  502  0.33433449065E+02  0.36996022746E+02  0.56190045186E+03  0.56410869433E+03  0.00000000000E+00 0. -1.
         21    1    1    2  505  504  0.35687307675E+02 -0.48885546436E+02  0.28723971016E+03  0.29354732442E+03  0.00000000000E+00 0. -1.
          2    1    1    2  501    0 -0.10420305284E+03  0.50774578856E+02 -0.51166837797E+03  0.52463402777E+03  0.00000000000E+00 0. -1.
<scales pt_clust_3="33.81038" pt_clust_4="49.86483" pt_clust_5="33.81038" pt_clust_6="115.70918"></scales>
<clustering>
<clus scale="   33.810">  3  5 -1 -1</clus>
<clus scale="   49.865">  1  4  2 -1</clus>
<clus scale="  115.709">  2  6  1 -1</clus>
<clus scale="   49.865">  1  3  2 -1</clus>
</clustering>
</event>
<event>
 6    0  0.6851428E+002  0.9231132E+02  0.7546771E-02  0.1297349E+00
          2   -1    0    0  505    0 -0.00000000000E+00  0.00000000000E+00  0.37164596260E+03  0.37164596260E+03  0.00000000000E+00 0.  1.
         21   -1    0    0  504  502  0.00000000000E+00 -0.00000000000E+00 -0.76810880216E+03  0.76810880216E+03  0.00000000000E+00 0.  1.
         21    1    1    2  503  502 -0.39762889574E+02  0.44787044947E+02 -0.33185364390E+02  0.68470688561E+02  0.00000000000E+00 0. -1.
         21    1    1    2  504  501  0.79075624200E+02 -0.15905546477E+01 -0.69045110122E+03  0.69496633543E+03  0.00000000000E+00 0.  1.
         21    1    1    2  505  503 -0.41555273456E+02  0.32294301231E+02  0.14411250922E+02  0.54565985716E+02  0.00000000000E+00 0.  1.
          2    1    1    2  501    0  0.22425388300E+01 -0.75490791530E+02  0.31276237512E+03  0.32175175505E+03  0.00000000000E+00 0.  1.
<scales pt_clust_3="44.28079" pt_clust_4="79.30953" pt_clust_5="44.28079" pt_clust_6="75.52409"></scales>
<clustering>
<clus scale="   44.281">  3  5 -1 -1</clus>
<clus scale="   75.524">  1  6  2 -1</clus>
<clus scale="   79.310">  2  4  1 -1</clus>
<clus scale="   79.310">  2  3  1 -1</clus>
</clustering>
</event>
<event>
 6    0  0.6851428E+002  0.1026036E+03  0.7546771E-02  0.1274914E+00
         -3   -1    0    0    0  501 -0.00000000000E+00  0.00000000000E+00  0.14258920133E+04  0.14258920133E+04  0.00000000000E+00 0. -1.
         21   -1    0    0  505  502  0.00000000000E+00 -0.00000000000E+00 -0.24336609786E+02  0.24336609786E+02  0.00000000000E+00 0. -1.
         21    1    1    2  503  504  0.11808194475E+02 -0.48636907613E+02  0.12502824058E+03  0.13467384001E+03  0.00000000000E+00 0. -1.
         21    1    1    2  504  501  0.81456690119E+02  0.73250912377E+02  0.34695232640E+03  0.36383623421E+03  0.00000000000E+00 0. -1.
         21    1    1    2  505  503 -0.21155015152E+02  0.45003645556E+02  0.67518245042E+02  0.83854494173E+02  0.00000000000E+00 0. -1.
         -3    1    1    2    0  502 -0.72109869442E+02 -0.69617650320E+02  0.86205659152E+03  0.86786405472E+03  0.00000000000E+00 0. -1.
<scales pt_clust_3="35.63967" pt_clust_4="14000.00000" pt_clust_5="49.72789" pt_clust_6="102.60363"></scales>
<clustering>
<clus scale="   49.728">  2  5  1 -1</clus>
<clus scale="   35.640">  2  3  1 -1</clus>
<clus scale="  102.604">  1  6  2 -1</clus>
<clus scale="   49.728">  2  3  1 -1</clus>
</clustering>
</event>
<event>
 6    0  0.6851428E+002  0.2557133E+03  0.7546771E-02  0.1109746E+00
         21   -1    0    0  504  502  0.00000000000E+00  0.00000000000E+00  0.12599493513E+03  0.12599493513E+03  0.00000000000E+00 0. -1.
          2   -1    0    0  503    0 -0.00000000000E+00 -0.00000000000E+00 -0.16203282439E+04  0.16203282439E+04  0.00000000000E+00 0. -1.
         21    1    1    2  503  502  0.56284181550E+01  0.73527501431E+02 -0.15280048759E+02  0.75309046254E+02  0.00000000000E+00 0. -1.
         21    1    1    2  504  505  0.11934999427E+03 -0.38091184099E+02 -0.78673609080E+02  0.14793544607E+03  0.00000000000E+00 0. -1.
         21    1    1    2  505  501  0.81428297765E+02 -0.13872694195E+03 -0.74525388806E+02  0.17728442029E+03  0.00000000000E+00 0. -1.
          2    1    1    2  501    0 -0.20640671019E+03  0.10329062462E+03 -0.13258542622E+04  0.13457942665E+04  0.00000000000E+00 0. -1.
<scales pt_clust_3="73.74261" pt_clust_4="100.12539" pt_clust_5="100.12539" pt_clust_6="233.81149"></scales>
<clustering>
<clus scale="   73.743">  1  3  2 -1</clus>
<clus scale="  100.125">  4  5 -1 -1</clus>
<clus scale="  233.811">  2  6  1 -1</clus>
<clus scale="   73.743">  1  3  2 -1</clus>
</clustering>
</event>
<event>
 6    0  0.6851428E+002  0.8102403E+02  0.7546771E-02  0.1326170E+00
          2   -1    0    0  503    0 -0.00000000000E+00  0.00000000000E+00  0.78826028332E+02  0.78826028332E+02  0.00000000000E+00 0.  1.
         21   -1    0    0  505  502  0.00000000000E+00 -0.00000000000E+00 -0.10367619571E+04  0.10367619571E+04  0.00000000000E+00 0. -1.
         21    1    1    2  503  504 -0.97181230535E+00  0.59664056933E+02 -0.68772626363E+02  0.91051733897E+02  0.00000000000E+00 0.  1.
         21    1    1    2  504  502 -0.52391925707E+02  0.59475930622E+02 -0.25146451828E+01  0.79300842638E+02  0.00000000000E+00 0.  1.
         21    1    1    2  505  501  0.55635419702E+02 -0.59023730225E+02 -0.88109482341E+03  0.88482042725E+03  0.00000000000E+00 0. -1.
          2    1    1    2  501    0 -0.22716816893E+01 -0.60116257329E+02 -0.55538337817E+01  0.60414981608E+02  0.00000000000E+00 0.  1.
<scales pt_clust_3="59.67197" pt_clust_4="81.02403" pt_clust_5="14000.00000" pt_clust_6="36.03556"></scales>
<clustering>
<clus scale="   59.672">  1  3  2 -1</clus>
<clus scale="   36.036">  1  6  2 -1</clus>
<clus scale="   81.024">  1  4  2 -1</clus>
<clus scale="   81.024">  2  3  1 -1</clus>
</clustering>
</event>
<event>
 6    0  0.6851428E+002  0.1071476E+03  0.7546771E-02  0.1265945E+00
         21   -1    0    0  505  502  0.00000000000E+00  0.00000000000E+00  0.48275052238E+03  0.48275052238E+03  0.00000000000E+00 0.  1.
         -2   -1    0    0    0  501 -0.00000000000E+00 -0.00000000000E+00 -0.11815037119E+04  0.11815037119E+04  0.00000000000E+00 0. -1.
         21    1    1    2  503  502  0.32544683687E+02  0.12238854112E+02  0.38124306380E+03  0.38282531223E+03  0.00000000000E+00 0.  1.
         21    1    1    2  504  503 -0.13150551465E+03 -0.48450999412E+02  0.13158378377E+02  0.14076342795E+03  0.00000000000E+00 0.  1.
         21    1    1    2  505  501  0.62482837048E+02  0.66488480433E+02 -0.66465778850E+02  0.11288278307E+03  0.00000000000E+00 0.  1.
         -2    1    1    2    0  504  0.36477993917E+02 -0.30276335133E+02 -0.10266888528E+04  0.10277827110E+04  0.00000000000E+00 0. -1.
<scales pt_clust_3="34.76990" pt_clust_4="107.14756" pt_clust_5="14000.00000" pt_clust_6="47.49953"></scales>
<clustering>
<clus scale="   34.770">  1  3  2 -1</clus>
<clus scale="   47.500">  2  6  1 -1</clus>
<clus scale="  107.148">  1  4  2 -1</clus>
<clus scale="   34.770">  1  3  2 -1</clus>
</clustering>
</event>
<event>
 6    0  0.6851428E+002  0.1198669E+03  0.7546771E-02  0.1243317E+00
          2   -1    0    0  502    0 -0.00000000000E+00  0.00000000000E+00  0.41686635060E+04  0.41686635060E+04  0.00000000000E+00 0.  1.
         21   -1    0    0  505  502  0.00000000000E+00 -0.00000000000E+00 -0.17880759577E+02  0.17880759577E+02  0.00000000000E+00 0. -1.
         21    1    1    2  503  501 -0.28706126423E+02  0.27159280276E+02  0.10861689539E+03  0.11558243017E+03  0.00000000000E+00 0.  1.
         21    1    1    2  504  503 -0.85767287687E+02 -0.18957351888E+02  0.33943062311E+03  0.35061168938E+03  0.00000000000E+00 0. -1.
         21    1    1    2  505  504  0.23066382973E+02 -0.60486808799E+02  0.12238300033E+03  0.13844966895E+03  0.00000000000E+00 0. -1.
          2    1    1    2  501    0  0.91407031138E+02  0.52284880410E+02  0.35803522275E+04  0.35819004770E+04  0.00000000000E+00 0.  1.
<scales pt_clust_3="39.21963" pt_clust_4="39.21963" pt_clust_5="64.73571" pt_clust_6="104.63804"></scales>
<clustering>
<clus scale="   39.220">  3  4 -1 -1</clus>
<clus scale="   64.736">  2  5  1 -1</clus>
<clus scale="  104.638">  1  6  2 -1</clus>
<clus scale="   64.736">  2  3  1 -1</clus>
</clustering>
</event>
<event>
 6    0  0.6851428E+002  0.8861854E+02  0.7546771E-02  0.1306232E+00
         21   -1    0    0  505  502  0.00000000000E+00  0.00000000000E+00  0.31713476436E+03  0.31713476436E+03  0.00000000000E+00 0. -1.
          2   -1    0    0  502    0 -0.00000000000E+00 -0.00000000000E+00 -0.88380360065E+03  0.88380360065E+03  0.00000000000E+00 0.  1.
         21    1    1    2  503  504  0.42917921670E+02  0.74226981689E+02 -0.57038872975E+02  0.10298070616E+03  0.00000000000E+00 0.  1.
         21    1    1    2  504  501 -0.18914358432E+02 -0.10256089424E+03 -0.38677609369E+02  0.11123150385E+03  0.00000000000E+00 0. -1.
         21    1    1    2  505  503 -0.30067947551E+02 -0.32699140797E+02  0.25467053371E+03  0.25851575584E+03  0.00000000000E+00 0. -1.
          2    1    1    2  501    0  0.60643843132E+01  0.61033053345E+02 -0.72562288766E+03  0.72821039916E+03  0.00000000000E+00 0.  1.
<scales pt_clust_3="88.61854" pt_clust_4="14000.00000" pt_clust_5="44.42201" pt_clust_6="60.57741"></scales>
<clustering>
<clus scale="   44.422">  1  5  2 -1</clus>
<clus scale="   60.577">  2  6  1 -1</clus>
<clus scale="   88.619">  1  3  2 -1</clus>
<clus scale="   44.422">  1  3  2 -1</clus>
</clustering>
</event>
<event>
 6    0  0.6851428E+002  0.1499260E+03  0.7546771E-02  0.1200564E+00
         21   -1    0    0  503  502  0.00000000000E+00  0.00000000000E+00  0.21484507631E+04  0.21484507631E+04  0.00000000000E+00 0. -1.
         -2   -1    0    0    0  501 -0.00000000000E+00 -0.00000000000E+00 -0.28379021653E+03  0.28379021653E+03  0.00000000000E+00 0.  1.
         21    1    1    2  503  501 -0.12733405124E+03 -0.58540015572E+02  0.61302494938E+03  0.62884058599E+03  0.00000000000E+00 0. -1.
         21    1    1    2  504  502  0.49643269821E+02 -0.45073659009E+02  0.10194676016E+04  0.10216703380E+04  0.00000000000E+00 0. -1.
         21    1    1    2  505  504  0.54104853155E+02 -0.36992167092E+02  0.48610732316E+03  0.49050594818E+03  0.00000000000E+00 0.  1.
         -2    1    1    2    0  505  0.23585928265E+02  0.14060584167E+03 -0.25393932750E+03  0.29122410747E+03  0.00000000000E+00 0.  1.
<scales pt_clust_3="140.14597" pt_clust_4="48.66418" pt_clust_5="48.66418" pt_clust_6="141.61570"></scales>
<clustering>
<clus scale="   48.664">  4  5 -1 -1</clus>
<clus scale="  140.146">  1  3  2 -1</clus>
<clus scale="  141.616">  2  6  1 -1</clus>
<clus scale="  140.146">  1  3  2 -1</clus>
</clustering>
</event>
<event>
 6    0  0.6851428E+002  0.1585676E+03  0.7546771E-02  0.1190323E+00
         21   -1    0    0  505  502  0.00000000000E+00  0.00000000000E+00  0.14641500610E+03  0.14641500610E+03  0.00000000000E+00 0.  1.
          2   -1    0    0  502    0 -0.00000000000E+00 -0.00000000000E+00 -0.81818301514E+03  0.81818301514E+03  0.00000000000E+00 0.  1.
         21    1    1    2  503  501 -0.13349267551E+02 -0.13874631201E+03 -0.15940610155E+03  0.21175232526E+03  0.00000000000E+00 0.  1.
         21    1    1    2  504  503 -0.84984069496E+02  0.65729447983E+02  0.20746166871E+02  0.10942145969E+03  0.00000000000E+00 0.  1.
         21    1    1    2  505  504 -0.17142217855E+01  0.56271695432E+02  0.35026662009E+02  0.66304670383E+02  0.00000000000E+00 0.  1.
          2    1    1    2  501    0  0.10004755883E+03  0.16745168595E+02 -0.56813473636E+03  0.57711956592E+03  0.00000000000E+00 0.  1.
<scales pt_clust_3="140.62541" pt_clust_4="53.03753" pt_clust_5="53.03753" pt_clust_6="101.43922"></scales>
<clustering>
<clus scale="   53.038">  4  5 -1 -1</clus>
<clus scale="  101.439">  2  6  1 -1</clus>
<clus scale="  140.625">  2  3  1 -1</clus>
<clus scale="  158.568">  1  3  2 -1</clus>
</clustering>
</event>
<event>
 6    0  0.6851428E+002  0.1194572E+03  0.7546771E-02  0.1243995E+00
         -3   -1    0    0    0  501 -0.00000000000E+00  0.00000000000E+00  0.14731761520E+04  0.14731761520E+04  0.00000000000E+00 0.  1.
         21   -1    0    0  505  502  0.00000000000E+00 -0.00000000000E+00 -0.17359604313E+03  0.17359604313E+03  0.00000000000E+00 0.  1.
         21    1    1    2  503  502  0.11266410318E+02  0.31788501336E+02  0.10110119259E+02  0.35208739399E+02  0.00000000000E+00 0. -1.
         21    1    1    2  504  503  0.39685518567E+02 -0.10859291570E+03  0.32646125611E+03  0.34632977560E+03  0.00000000000E+00 0.  1.
         21    1    1    2  505  501 -0.56060678085E+01  0.91559250808E+02 -0.13662700824E+03  0.16456446696E+03  0.00000000000E+00 0.  1.
         -3    1    1    2    0  504 -0.45345861076E+02 -0.14754836444E+02  0.10996357417E+04  0.11006692131E+04  0.00000000000E+00 0.  1.
<scales pt_clust_3="33.72597" pt_clust_4="14000.00000" pt_clust_5="119.45721" pt_clust_6="47.62012"></scales>
<clustering>
<clus scale="   33.726">  2  3  1 -1</clus>
<clus scale="   47.620">  1  6  2 -1</clus>
<clus scale="  119.457">  2  5  1 -1</clus>
<clus scale="   33.726">  2  3  1 -1</clus>
</clustering>
</event>
<event>
 6    0  0.6851428E+002  0.7187201E+02  0.7546771E-02  0.1353840E+00
          2   -1    0    0  504    0 -0.00000000000E+00  0.00000000000E+00  0.10894725508E+04  0.10894725508E+04  0.00000000000E+00 0. -1.
         21   -1    0    0  505  502  0.00000000000E+00 -0.00000000000E+00 -0.16185946530E+03  0.16185946530E+03  0.00000000000E+00 0.  1.
         21    1    1    2  503  501 -0.62412278114E+02  0.52857446595E+02 -0.32533225187E+02  0.88020525226E+02  0.00000000000E+00 0.  1.
         21    1    1    2  504  502  0.79467398070E+02  0.29053018067E+02 -0.20056047196E+02  0.86956254772E+02  0.00000000000E+00 0.  1.
         21    1    1    2  505  503 -0.84453746456E+01 -0.47358805149E+02 -0.35652043223E+02  0.59876948519E+02  0.00000000000E+00 0.  1.
          2    1    1    2  501    0 -0.86097453104E+01 -0.34551659513E+02  0.10158544011E+04  0.10164782876E+04  0.00000000000E+00 0. -1.
<scales pt_clust_3="14000.00000" pt_clust_4="71.87201" pt_clust_5="53.97749" pt_clust_6="35.60821"></scales>
<clustering>
<clus scale="   35.608">  1  6  2 -1</clus>
<clus scale="   53.977">  2  5  1 -1</clus>
<clus scale="   71.872">  1  4  2 -1</clus>
<clus scale="   53.977">  2  3  1 -1</clus>
</clustering>
</event>
<event>
 6    0  0.6851428E+002  0.1874854E+03  0.7546771E-02  0.1160749E+00
         21   -1    0    0  505  502  0.00000000000E+00  0.00000000000E+00  0.34808182106E+02  0.34808182106E+02  0.00000000000E+00 0. -1.
          2   -1    0    0  503    0 -0.00000000000E+00 -0.00000000000E+00 -0.37820380174E+04  0.37820380174E+04  0.00000000000E+00 0.  1.
         21    1    1    2  503  504  0.11301430178E+03  0.19294378678E+03 -0.89400370804E+03  0.92154336157E+03  0.00000000000E+00 0. -1.
         21    1    1    2  504  502 -0.42874829816E+02 -0.20990317505E+02 -0.21161461611E+02  0.52217352655E+02  0.00000000000E+00 0. -1.
         21    1    1    2  505  501 -0.35284039475E+02  0.63569653553E+01 -0.12806295552E+03  0.13298682275E+03  0.00000000000E+00 0.  1.
          2    1    1    2  501    0 -0.34855432494E+02 -0.17831043463E+03 -0.27040017102E+04  0.27100986626E+04  0.00000000000E+00 0.  1.
<scales pt_clust_3="187.48536" pt_clust_4="62.44516" pt_clust_5="35.85212" pt_clust_6="14000.00000"></scales>
<clustering>
<clus scale="   35.852">  1  5  2 -1</clus>
<clus scale="   62.445">  1  4  2 -1</clus>
<clus scale="  187.485">  1  3  2 -1</clus>
<clus scale="   35.852">  1  3  2 -1</clus>
</clustering>
</event>
<event>
 6    0  0.6851428E+002  0.9892823E+02  0.7546771E-02  0.1282566E+00
          2   -1    0    0  505    0 -0.00000000000E+00  0.00000000000E+00  0.67548039295E+03  0.67548039295E+03  0.00000000000E+00 0. -1.
         21   -1    0    0  504  502  0.00000000000E+00 -0.00000000000E+00 -0.75557513311E+02  0.75557513311E+02  0.00000000000E+00 0.  1.
         21    1    1    2  503  501  0.37280748173E+02 -0.61484675334E+02  0.17852704388E+03  0.19246330788E+03  0.00000000000E+00 0. -1.
         21    1    1    2  504  503 -0.32360396394E+02 -0.25897658385E+02 -0.26946286543E+02  0.49436690050E+02  0.00000000000E+00 0.  1.
         21    1    1    2  505  502 -0.27973890332E+01  0.13289894765E+03  0.12456875869E+03  0.18217390404E+03  0.00000000000E+00 0.  1.
          2    1    1    2  501    0 -0.21229627463E+01 -0.45516613929E+02  0.32377336361E+03  0.32696400429E+03  0.00000000000E+00 0. -1.
<scales pt_clust_3="14000.00000" pt_clust_4="41.44736" pt_clust_5="98.92823" pt_clust_6="46.75383"></scales>
<clustering>
<clus scale="   41.447">  2  4  1 -1</clus>
<clus scale="   46.754">  1  6  2 -1</clus>
<clus scale="   98.928">  2  5  1 -1</clus>
<clus scale="   41.447">  2  3  1 -1</clus>
</clustering>
</event>
<event>
 6    0  0.6851428E+002  0.1316865E+03  0.7546771E-02  0.1224975E+00
          2   -1    0    0  505    0 -0.00000000000E+00  0.00000000000E+00  0.23364576438E+04  0.23364576438E+04  0.00000000000E+00 0.  1.
         21   -1    0    0  504  502  0.00000000000E+00 -0.00000000000E+00 -0.10324304806E+03  0.10324304806E+03  0.00000000000E+00 0. -1.
         21    1    1    2  503  502  0.49624090562E+02  0.13203248611E+03  0.11771918206E+03  0.18371971472E+03  0.00000000000E+00 0. -1.
         21    1    1    2  504  501  0.73951298484E+02 -0.12619361899E+03  0.20211186604E+02  0.14765539640E+03  0.00000000000E+00 0. -1.
         21    1    1    2  505  503 -0.53966270599E+02  0.23061331176E+02  0.14282722605E+03  0.15441437711E+03  0.00000000000E+00 0. -1.
          2    1    1    2  501    0 -0.69609118446E+02 -0.28900198292E+02  0.19524570010E+04  0.19539112036E+04  0.00000000000E+00 0.  1.
<scales pt_clust_3="131.68650" pt_clust_4="14000.00000" pt_clust_5="58.68717" pt_clust_6="118.08026"></scales>
<clustering>
<clus scale="   58.687">  1  5  2 -1</clus>
<clus scale="  118.080">  1  6  2 -1</clus>
<clus scale="  131.686">  1  3  2 -1</clus>
<clus scale="  131.686">  2  3  1 -1</clus>
</clustering>
</event>
<event>
 6    0  0.6851428E+002  0.1266354E+03  0.7546771E-02  0.1232535E+00
          2   -1    0    0  505    0 -0.00000000000E+00  0.00000000000E+00  0.37166444046E+04  0.37166444046E+04  0.00000000000E+00 0.  1.
         21   -1    0    0  504  502  0.00000000000E+00 -0.00000000000E+00 -0.37303494226E+02  0.37303494226E+02  0.00000000000E+00 0.  1.
         21    1    1    2  503  501  0.43278722494E+02 -0.67024691294E+02  0.25762856963E+03  0.26969953088E+03  0.00000000000E+00 0.  1.
         21    1    1    2  504  503 -0.33086809613E+02 -0.16177811576E+02  0.84235335848E+02  0.91935033383E+02  0.00000000000E+00 0.  1.
         21    1    1    2  505  502 -0.99769729234E+02 -0.96981872246E+01  0.69937848973E+02  0.12222666005E+03  0.00000000000E+00 0.  1.
          2    1    1    2  501    0  0.89577816353E+02  0.92900690095E+02  0.32675391559E+04  0.32700866745E+04  0.00000000000E+00 0.  1.
<scales pt_clust_3="79.27213" pt_clust_4="36.83013" pt_clust_5="126.63544" pt_clust_6="14000.00000"></scales>
<clustering>
<clus scale="   36.830">  2  4  1 -1</clus>
<clus scale="   79.272">  2  3  1 -1</clus>
<clus scale="  126.635">  2  5  1 -1</clus>
<clus scale="   36.830">  2  3  1 -1</clus>
</clustering>
</event>
<event>
 6    0  0.6851428E+002  0.1436945E+03  0.7546771E-02  0.1208443E+00
          2   -1    0    0  505    0 -0.00000000000E+00  0.00000000000E+00  0.70793554951E+03  0.70793554951E+03  0.00000000000E+00 0. -1.
         21   -1    0    0  504  502  0.00000000000E+00 -0.00000000000E+00 -0.10622650210E+03  0.10622650210E+03  0.00000000000E+00 0. -1.
         21    1    1    2  503  501  0.53350722513E+02  0.61499742529E+02  0.11294496208E+03  0.13923032135E+03  0.00000000000E+00 0. -1.
         21    1    1    2  504  503  0.51161963250E+02  0.76253877500E+01  0.79638730083E+02  0.94963257901E+02  0.00000000000E+00 0. -1.
         21    1    1    2  505  502 -0.14476964763E+03  0.59571052196E+00 -0.17489518774E+02  0.14582348580E+03  0.00000000000E+00 0. -1.
          2    1    1    2  501    0  0.40256961863E+02 -0.69720840801E+02  0.42661487402E+03  0.43414498656E+03  0.00000000000E+00 0. -1.
<scales pt_clust_3="36.15088" pt_clust_4="36.15088" pt_clust_5="136.34928" pt_clust_6="80.50850"></scales>
<clustering>
<clus scale="   36.151">  3  4 -1 -1</clus>
<clus scale="   80.509">  1  6  2 -1</clus>
<clus scale="  136.349">  2  5  1 -1</clus>
<clus scale="  136.349">  2  3  1 -1</clus>
</clustering>
</event>
<event>
 6    0  0.6851428E+002  0.7485541E+02  0.7546771E-02  0.1344319E+00
          4   -1    0    0  503    0 -0.00000000000E+00  0.00000000000E+00  0.19303459527E+04  0.19303459527E+04  0.00000000000E+00 0. -1.
         21   -1    0    0  501  502  0.00000000000E+00 -0.00000000000E+00 -0.93691676471E+02  0.93691676471E+02  0.00000000000E+00 0.  1.
         21    1    1    2  503  505  0.21154205893E+02  0.41588109777E+02  0.11768679960E+03  0.12659879186E+03  0.00000000000E+00 0. -1.
         21    1    1    2  504  502 -0.10952844575E+02  0.70159378664E+02 -0.25511122381E+02  0.75452770552E+02  0.00000000000E+00 0.  1.
         21    1    1    2  505  504  0.58635523191E+02 -0.70612033396E+02  0.17858292730E+02  0.93504558495E+02  0.00000000000E+00 0.  1.
          4    1    1    2  501    0 -0.68836884509E+02 -0.41135455045E+02  0.17266203063E+04  0.17284815082E+04  0.00000000000E+00 0. -1.
<scales pt_clust_3="46.65910" pt_clust_4="14000.00000" pt_clust_5="74.85541" pt_clust_6="48.64645"></scales>
<clustering>
<clus scale="   46.659">  1  3  2 -1</clus>
<clus scale="   48.646">  1  6  2 -1</clus>
<clus scale="   74.855">  1  5  2 -1</clus>
<clus scale="   74.855">  2  3  1 -1</clus>
</clustering>
</event>
<event>
 6    0  0.6851428E+002  0.1292199E+03  0.7546771E-02  0.1228618E+00
         21   -1    0    0  501  502  0.00000000000E+00  0.00000000000E+00  0.70569739524E+02  0.70569739524E+02  0.00000000000E+00 0.  1.
         -3   -1    0    0    0  501 -0.00000000000E+00 -0.00000000000E+00 -0.90328824624E+03  0.90328824624E+03  0.00000000000E+00 0.  1.
         21    1    1    2  503  505 -0.22117003293E+02 -0.11011765007E+03 -0.94066454046E+02  0.14650445887E+03  0.00000000000E+00 0.  1.
         21    1    1    2  504  503  0.77059634810E+02  0.16529613415E+03 -0.26443305973E+03  0.32122553193E+03  0.00000000000E+00 0.  1.
         21    1    1    2  505  502 -0.40793315048E+02  0.37164553376E+02 -0.60057872440E+02  0.81561305913E+02  0.00000000000E+00 0.  1.
         -3    1    1    2    0  504 -0.14149316469E+02 -0.92343037454E+02 -0.41416112050E+03  0.42456668906E+03  0.00000000000E+00 0.  1.
<scales pt_clust_3="14000.00000" pt_clust_4="129.21985" pt_clust_5="55.18422" pt_clust_6="90.85094"></scales>
<clustering>
<clus scale="   55.184">  1  5  2 -1</clus>
<clus scale="   90.851">  2  6  1 -1</clus>
<clus scale="  129.220">  2  4  1 -1</clus>
<clus scale="   55.184">  1  3  2 -1</clus>
</clustering>
</event>
<event>
 6    0  0.6851428E+002  0.8827734E+02  0.7546771E-02  0.1307078E+00
         21   -1    0    0  504  502  0.00000000000E+00  0.00000000000E+00  0.14126512230E+04  0.14126512230E+04  0.00000000000E+00 0.  1.
          4   -1    0    0  505    0 -0.00000000000E+00 -0.00000000000E+00 -0.45876347258E+02  0.45876347258E+02  0.00000000000E+00 0.  1.
         21    1    1    2  503  501 -0.92337407460E+02  0.33540200609E+02  0.38219912646E+03  0.39462300255E+03  0.00000000000E+00 0. -1.
         21    1    1    2  504  503  0.30695773049E+02 -0.38650752588E+02  0.19050261002E+03  0.19679267157E+03  0.00000000000E+00 0.  1.
         21    1    1    2  505  502  0.46747297310E+02 -0.44769349800E+02  0.81007108509E+03  0.81265291939E+03  0.00000000000E+00 0.  1.
          4    1    1    2  501    0  0.14894337100E+02  0.49879901779E+02 -0.15997945824E+02  0.54458976759E+02  0.00000000000E+00 0.  1.
<scales pt_clust_3="14000.00000" pt_clust_4="49.35698" pt_clust_5="88.27734" pt_clust_6="51.61443"></scales>
<clustering>
<clus scale="   49.357">  1  4  2 -1</clus>
<clus scale="   51.614">  2  6  1 -1</clus>
<clus scale="   88.277">  1  5  2 -1</clus>
<clus scale="   49.357">  1  3  2 -1</clus>
</clustering>
</event>
<event>
 6    0  0.6851428E+002  0.1577625E+03  0.7546771E-02  0.1191246E+00
         21   -1    0    0  501  502  0.00000000000E+00  0.00000000000E+00  0.26993746014E+03  0.26993746014E+03  0.00000000000E+00 0.  1.
          2   -1    0    0  505    0 -0.00000000000E+00 -0.00000000000E+00 -0.17637807899E+04  0.17637807899E+04  0.00000000000E+00 0.  1.
         21    1    1    2  503  502  0.60189519887E+02 -0.14501343408E+03  0.23405743734E+03  0.28184137088E+03  0.00000000000E+00 0.  1.
         21    1    1    2  504  503 -0.10382427279E+03  0.16192329116E+03 -0.99456655307E+03  0.10129961798E+04  0.00000000000E+00 0.  1.
         21    1    1    2  505  504  0.20744288814E+02  0.29817597466E+02 -0.38059336157E+03  0.38232279752E+03  0.00000000000E+00 0.  1.
          2    1    1    2  501    0  0.22890464090E+02 -0.46727454551E+02 -0.35274085241E+03  0.35655790177E+03  0.00000000000E+00 0.  1.
<scales pt_clust_3="157.76246" pt_clust_4="14000.00000" pt_clust_5="36.32375" pt_clust_6="48.19750"></scales>
<clustering>
<clus scale="   36.324">  2  5  1 -1</clus>
<clus scale="   48.197">  2  6  1 -1</clus>
<clus scale="  157.762">  1  3  2 -1</clus>
<clus scale="  157.762">  1  3  2 -1</clus>
</clustering>
</event>
<event>
 6    0  0.6851428E+002  0.9076365E+02  0.7546771E-02  0.1301013E+00
         21   -1    0    0  503  502  0.00000000000E+00  0.00000000000E+00  0.82582863704E+03  0.82582863704E+03  0.00000000000E+00 0. -1.
          2   -1    0    0  505    0 -0.00000000000E+00 -0.00000000000E+00 -0.19832081381E+04  0.19832081381E+04  0.00000000000E+00 0. -1.
         21    1    1    2  503  501  0.11179618573E+03 -0.83902381773E+02  0.50615461112E+03  0.52510045436E+03  0.00000000000E+00 0. -1.
         21    1    1    2  504  502 -0.89806268685E+01 -0.42896331891E+02  0.20750708800E+03  0.21208474372E+03  0.00000000000E+00 0.  1.
         21    1    1    2  505  504 -0.44384182902E+02  0.57465968065E+02  0.86089361846E+02  0.11262180695E+03  0.00000000000E+00 0. -1.
          2    1    1    2  501    0 -0.58431375962E+02  0.69332745599E+02 -0.19571305620E+04  0.19592297701E+04  0.00000000000E+00 0. -1.
<scales pt_clust_3="14000.00000" pt_clust_4="43.82633" pt_clust_5="68.23254" pt_clust_6="90.76365"></scales>
<clustering>
<clus scale="   43.826">  1  4  2 -1</clus>
<clus scale="   68.233">  1  5  2 -1</clus>
<clus scale="   90.764">  2  6  1 -1</clus>
<clus scale="   43.826">  1  3  2 -1</clus>
</clustering>
</event>
<event>
 6    0  0.6851428E+002  0.1476632E+03  0.7546771E-02  0.1203374E+00
         21   -1    0    0  504  502  0.00000000000E+00  0.00000000000E+00  0.12357447912E+03  0.12357447912E+03  0.00000000000E+00 0. -1.
          2   -1    0    0  503    0 -0.00000000000E+00 -0.00000000000E+00 -0.91996282073E+03  0.91996282073E+03  0.00000000000E+00 0. -1.
         21    1    1    2  503  502 -0.10372206052E+03  0.81506268903E+02  0.45304420984E+02  0.13947769811E+03  0.00000000000E+00 0. -1.
         21    1    1    2  504  505  0.12186622148E+03 -0.28535243993E+02 -0.17057874415E+03  0.21157207765E+03  0.00000000000E+00 0. -1.
         21    1    1    2  505  501  0.25781710004E+02 -0.36436649135E+02 -0.40937818499E+02  0.60565922386E+02  0.00000000000E+00 0. -1.
          2    1    1    2  501    0 -0.43925870965E+02 -0.16534375775E+02 -0.63017619994E+03  0.63192160170E+03  0.00000000000E+00 0. -1.
<scales pt_clust_3="136.03623" pt_clust_4="34.29781" pt_clust_5="34.29781" pt_clust_6="46.93472"></scales>
<clustering>
<clus scale="   34.298">  4  5 -1 -1</clus>
<clus scale="   46.935">  2  6  1 -1</clus>
<clus scale="  136.036">  1  3  2 -1</clus>
<clus scale="  136.036">  1  3  2 -1</clus>
</clustering>
</event>
<event>
 6    0  0.6851428E+002  0.1325878E+03  0.7546771E-02  0.1223666E+00
          2   -1    0    0  504    0 -0.00000000000E+00  0.00000000000E+00  0.19785555519E+04  0.19785555519E+04  0.00000000000E+00 0. -1.
         21   -1    0    0  503  502  0.00000000000E+00 -0.00000000000E+00 -0.13641318477E+03  0.13641318477E+03  0.00000000000E+00 0. -1.
         21    1    1    2  503  501 -0.94226248041E+01 -0.30503136383E+02  0.40095910378E+02  0.51253382488E+02  0.00000000000E+00 0.  1.
         21    1    1    2  504  505  0.58895022527E+02 -0.24826196970E+02 -0.32663718434E+02  0.71776613436E+02  0.00000000000E+00 0. -1.
         21    1    1    2  505  502  0.68549063208E+02  0.14121081028E+02 -0.60558942105E+02  0.92551415251E+02  0.00000000000E+00 0. -1.
          2    1    1    2  501    0 -0.11802146093E+03  0.41208252325E+02  0.18952691173E+04  0.18993873255E+04  0.00000000000E+00 0. -1.
<scales pt_clust_3="31.92534" pt_clust_4="43.13664" pt_clust_5="43.13664" pt_clust_6="124.99151"></scales>
<clustering>
<clus scale="   31.925">  2  3  1 -1</clus>
<clus scale="   43.137">  4  5 -1 -1</clus>
<clus scale="  124.992">  1  6  2 -1</clus>
<clus scale="   31.925">  2  3  1 -1</clus>
</clustering>
</event>
<event>
 6    0  0.6851428E+002  0.1021090E+03  0.7546771E-02  0.1275923E+00
         21   -1    0    0  501  502  0.00000000000E+00  0.00000000000E+00  0.41505731056E+03  0.41505731056E+03  0.00000000000E+00 0. -1.
          2   -1    0    0  503    0 -0.00000000000E+00 -0.00000000000E+00 -0.99346090259E+03  0.99346090259E+03  0.00000000000E+00 0.  1.
         21    1    1    2  503  504  0.10541004006E+02  0.11341826102E+03 -0.57590716993E+03  0.58706378110E+03  0.00000000000E+00 0.  1.
         21    1    1    2  504  505 -0.50441969952E+02 -0.80639892507E+02 -0.36738008721E+03  0.37949349543E+03  0.00000000000E+00 0.  1.
         21    1    1    2  505  502 -0.39882802632E+02  0.13153573644E+01  0.35199036734E+03  0.35424509426E+03  0.00000000000E+00 0. -1.
          2    1    1    2  501    0  0.79783768578E+02 -0.34093725874E+02  0.12893297784E+02  0.87715842356E+02  0.00000000000E+00 0.  1.
<scales pt_clust_3="102.10899" pt_clust_4="14000.00000" pt_clust_5="39.90449" pt_clust_6="57.76462"></scales>
<clustering>
<clus scale="   39.904">  1  5  2 -1</clus>
<clus scale="   57.765">  1  6  2 -1</clus>
<clus scale="  102.109">  2  3  1 -1</clus>
<clus scale="   39.904">  1  3  2 -1</clus>
</clustering>
</event>
<event>
 6    0  0.6851428E+002  0.3136773E+03  0.7546771E-02  0.1078597E+00
         21   -1    0    0  501  502  0.00000000000E+00  0.00000000000E+00  0.18361934055E+04  0.18361934055E+04  0.00000000000E+00 0. -1.
          2   -1    0    0  505    0 -0.00000000000E+00 -0.00000000000E+00 -0.22371869432E+03  0.22371869432E+03  0.00000000000E+00 0. -1.
         21    1    1    2  503  502 -0.22598828534E+03 -0.49933733217E+02  0.11102029854E+04  0.11340699941E+04  0.00000000000E+00 0. -1.
         21    1    1    2  504  503 -0.80224559714E+02 -0.39361560050E+01  0.57247919389E+03  0.57808641287E+03  0.00000000000E+00 0. -1.
         21    1    1    2  505  504  0.34159460634E+02  0.29824749310E+02  0.32689167691E+02  0.55901396284E+02  0.00000000000E+00 0.  1.
          2    1    1    2  501    0  0.27205338442E+03  0.24045139912E+02 -0.10289663581E+03  0.29185429651E+03  0.00000000000E+00 0. -1.
<scales pt_clust_3="34.31015" pt_clust_4="34.31015" pt_clust_5="45.34738" pt_clust_6="308.22307"></scales>
<clustering>
<clus scale="   34.310">  3  4 -1 -1</clus>
<clus scale="   45.347">  2  5  1 -1</clus>
<clus scale="  308.223">  2  6  1 -1</clus>
<clus scale="  313.677">  1  3  2 -1</clus>
</clustering>
</event>
<event>
 6    0  0.6851428E+002  0.6697417E+02  0.7546771E-02  0.1370696E+00
         21   -1    0    0  503  502  0.00000000000E+00  0.00000000000E+00  0.14236681412E+04  0.14236681412E+04  0.00000000000E+00 0. -1.
         -4   -1    0    0    0  501 -0.00000000000E+00 -0.00000000000E+00 -0.41108365619E+02  0.41108365619E+02  0.00000000000E+00 0.  1.
         21    1    1    2  503  505 -0.28282767690E+01 -0.35736164763E+02  0.32171836875E+03  0.32370940891E+03  0.00000000000E+00 0.  1.
         21    1    1    2  504  502 -0.97620987576E+02 -0.13734434375E+02  0.86914544092E+03  0.87471840576E+03  0.00000000000E+00 0. -1.
         21    1    1    2  505  501  0.34670557249E+02  0.51661455306E+02  0.19062860313E+03  0.20052485590E+03  0.00000000000E+00 0.  1.
         -4    1    1    2    0  504  0.65778707096E+02 -0.21908561677E+01  0.10673627997E+01  0.65823836270E+02  0.00000000000E+00 0.  1.
<scales pt_clust_3="35.84791" pt_clust_4="14000.00000" pt_clust_5="56.75161" pt_clust_6="66.97417"></scales>
<clustering>
<clus scale="   35.848">  1  3  2 -1</clus>
<clus scale="   56.752">  1  5  2 -1</clus>
<clus scale="   66.974">  2  6  1 -1</clus>
<clus scale="   35.848">  1  3  2 -1</clus>
</clustering>
</event>
<event>
 6    0  0.6851428E+002  0.8930178E+02  0.7546771E-02  0.1304551E+00
          2   -1    0    0  503    0 -0.00000000000E+00  0.00000000000E+00  0.34681891591E+03  0.34681891591E+03  0.00000000000E+00 0.  1.
         21   -1    0    0  505  502  0.00000000000E+00 -0.00000000000E+00 -0.30183207090E+03  0.30183207090E+03  0.00000000000E+00 0. -1.
         21    1    1    2  503  502 -0.35987978368E+02  0.67303783090E+02 -0.28583691053E+02  0.81498228198E+02  0.00000000000E+00 0. -1.
         21    1    1    2  504  501 -0.70101533222E+02 -0.13885675507E+02 -0.38976308254E+02  0.81401409997E+02  0.00000000000E+00 0. -1.
         21    1    1    2  505  504  0.34674234221E+02  0.40648784959E+01 -0.17784139566E+03  0.18123572431E+03  0.00000000000E+00 0. -1.
          2    1    1    2  501    0  0.71415277368E+02 -0.57482986079E+02  0.29038823997E+03  0.30451562430E+03  0.00000000000E+00 0.  1.
<scales pt_clust_3="14000.00000" pt_clust_4="54.35139" pt_clust_5="34.91169" pt_clust_6="89.30178"></scales>
<clustering>
<clus scale="   34.912">  2  5  1 -1</clus>
<clus scale="   54.351">  2  4  1 -1</clus>
<clus scale="   89.302">  1  6  2 -1</clus>
<clus scale="   34.912">  2  3  1 -1</clus>
</clustering>
</event>
<event>
 6    0  0.6851428E+002  0.6366799E+02  0.7546771E-02  0.1383053E+00
          2   -1    0    0  505    0 -0.00000000000E+00  0.00000000000E+00  0.21951435197E+04  0.21951435197E+04  0.00000000000E+00 0.  1.
         21   -1    0    0  503  502  0.00000000000E+00 -0.00000000000E+00 -0.65290208220E+02  0.65290208220E+02  0.00000000000E+00 0.  1.
         21    1    1    2  503  504 -0.26774052486E+01 -0.52952180810E+02  0.34573107055E+02  0.63296142717E+02  0.00000000000E+00 0. -1.
         21    1    1    2  504  501  0.12423287946E+02  0.11074150817E+03  0.18614556706E+02  0.11298018161E+03  0.00000000000E+00 0.  1.
         21    1    1    2  505  502  0.31819434312E+02 -0.99619312906E+01  0.82467764133E+02  0.88953069627E+02  0.00000000000E+00 0.  1.
          2    1    1    2  501    0 -0.41565317010E+02 -0.47827396066E+02  0.19941978836E+04  0.19952043340E+04  0.00000000000E+00 0.  1.
<scales pt_clust_3="55.45643" pt_clust_4="63.66799" pt_clust_5="33.34241" pt_clust_6="14000.00000"></scales>
<clustering>
<clus scale="   33.342">  2  5  1 -1</clus>
<clus scale="   55.456">  2  3  1 -1</clus>
<clus scale="   63.668">  2  4  1 -1</clus>
<clus scale="   33.342">  2  3  1 -1</clus>
</clustering>
</event>
<event>
 6    0  0.6851428E+002  0.9746800E+02  0.7546771E-02  0.1285712E+00
          2   -1    0    0  503    0 -0.00000000000E+00  0.00000000000E+00  0.20213181890E+04  0.20213181890E+04  0.00000000000E+00 0. -1.
         21   -1    0    0  505  502  0.00000000000E+00 -0.00000000000E+00 -0.14548862923E+03  0.14548862923E+03  0.00000000000E+00 0.  1.
         21    1    1    2  503  502 -0.63023725769E+02  0.50583053371E+02  0.72617987850E+02  0.10864624916E+03  0.00000000000E+00 0.  1.
         21    1    1    2  504  501 -0.63061407640E+02 -0.53283830465E+02  0.95622720200E+02  0.12633135929E+03  0.00000000000E+00 0.  1.
         21    1    1    2  505  504  0.84118778705E+02 -0.57326084148E+02 -0.88113551230E+02  0.13463375047E+03  0.00000000000E+00 0.  1.
          2    1    1    2  501    0  0.41966354704E+02  0.60026861242E+02  0.17957024029E+04  0.17971954593E+04  0.00000000000E+00 0. -1.
<scales pt_clust_3="14000.00000" pt_clust_4="48.51098" pt_clust_5="97.46800" pt_clust_6="73.24206"></scales>
<clustering>
<clus scale="   73.242">  1  6  2 -1</clus>
<clus scale="   48.511">  1  4  2 -1</clus>
<clus scale="   97.468">  2  5  1 -1</clus>
<clus scale="   97.468">  2  3  1 -1</clus>
</clustering>
</event>
<event>
 6    0  0.6851428E+002  0.1302810E+03  0.7546771E-02  0.1227039E+00
         21   -1    0    0  501  502  0.00000000000E+00  0.00000000000E+00  0.18830119229E+03  0.18830119229E+03  0.00000000000E+00 0. -1.
          2   -1    0    0  504    0 -0.00000000000E+00 -0.00000000000E+00 -0.14143377629E+04  0.14143377629E+04  0.00000000000E+00 0.  1.
         21    1    1    2  503  502  0.55945422702E+00 -0.39058623779E+02  0.15814765075E+03  0.16290048655E+03  0.00000000000E+00 0. -1.
         21    1    1    2  504  505 -0.57595709213E+02  0.11770620792E+03 -0.92404515409E+03  0.93329066421E+03  0.00000000000E+00 0.  1.
         21    1    1    2  505  503  0.76858196088E+01 -0.13570967615E+03 -0.28524733576E+03  0.31597821219E+03  0.00000000000E+00 0. -1.
          2    1    1    2  501    0  0.49350435377E+02  0.57062092006E+02 -0.17489173155E+03  0.19046959227E+03  0.00000000000E+00 0.  1.
<scales pt_clust_3="39.06263" pt_clust_4="14000.00000" pt_clust_5="130.28103" pt_clust_6="67.65413"></scales>
<clustering>
<clus scale="   39.063">  1  3  2 -1</clus>
<clus scale="   67.654">  1  6  2 -1</clus>
<clus scale="  130.281">  1  5  2 -1</clus>
<clus scale="   39.063">  1  3  2 -1</clus>
</clustering>
</event>
<event>
 6    0  0.6851428E+002  0.1004674E+03  0.7546771E-02  0.1279316E+00
          1   -1    0    0  504    0 -0.00000000000E+00  0.00000000000E+00  0.26890448713E+03  0.26890448713E+03  0.00000000000E+00 0. -1.
         21   -1    0    0  501  502  0.00000000000E+00 -0.00000000000E+00 -0.23196474360E+03  0.23196474360E+03  0.00000000000E+00 0.  1.
         21    1    1    2  503  502 -0.79920696917E+02 -0.59680104161E+02 -0.16459259941E+03  0.19245715473E+03  0.00000000000E+00 0.  1.
         21    1    1    2  504  505 -0.27566712712E+02 -0.15437799273E+02  0.16026012257E+02  0.35427141643E+02  0.00000000000E+00 0.  1.
         21    1    1    2  505  503  0.46526885321E+02 -0.27474983448E+02  0.19787912881E+01  0.54069782578E+02  0.00000000000E+00 0. -1.
          1    1    1    2  501    0  0.60960524309E+02  0.10259288688E+03  0.18352753939E+03  0.21891515178E+03  0.00000000000E+00 0. -1.
<scales pt_clust_3="100.46738" pt_clust_4="31.59508" pt_clust_5="52.29748" pt_clust_6="14000.00000"></scales>
<clustering>
<clus scale="   31.595">  1  4  2 -1</clus>
<clus scale="   52.297">  1  5  2 -1</clus>
<clus scale="  100.467">  2  3  1 -1</clus>
<clus scale="  100.467">  2  3  1 -1</clus>
</clustering>
</event>
<event>
 6    0  0.6851428E+002  0.1116454E+03  0.7546771E-02  0.1257553E+00
         21   -1    0    0  504  502  0.00000000000E+00  0.00000000000E+00  0.22380854750E+03  0.22380854750E+03  0.00000000000E+00 0.  1.
          1   -1    0    0  505    0 -0.00000000000E+00 -0.00000000000E+00 -0.27933386579E+03  0.27933386579E+03  0.00000000000E+00 0.  1.
         21    1    1    2  503  502 -0.53387148076E+02  0.92468182193E+01 -0.60187843689E+02  0.80983132533E+02  0.00000000000E+00 0.  1.
         21    1    1    2  504  501  0.46806954317E+02  0.78197059261E+02  0.15962367128E+03  0.18380801800E+03  0.00000000000E+00 0.  1.
         21    1    1    2  505  503 -0.74977476038E+02 -0.35473234930E+02 -0.56638824866E+02  0.10043868175E+03  0.00000000000E+00 0.  1.
          1    1    1    2  501    0  0.81557669798E+02 -0.51970642550E+02 -0.98322321011E+02  0.13791258100E+03  0.00000000000E+00 0.  1.
<scales pt_clust_3="37.03831" pt_clust_4="91.13545" pt_clust_5="37.03831" pt_clust_6="101.80668"></scales>
<clustering>
<clus scale="   37.038">  3  5 -1 -1</clus>
<clus scale="   91.135">  1  4  2 -1</clus>
<clus scale="  101.807">  2  6  1 -1</clus>
<clus scale="   91.135">  1  3  2 -1</clus>
</clustering>
</event>
<event>
 6    0  0.6851428E+002  0.1199144E+03  0.7546771E-02  0.1243238E+00
         21   -1    0    0  504  502  0.00000000000E+00  0.00000000000E+00  0.18681604661E+02  0.18681604661E+02  0.00000000000E+00 0.  1.
          2   -1    0    0  502    0 -0.00000000000E+00 -0.00000000000E+00 -0.13033611147E+04  0.13033611147E+04  0.00000000000E+00 0. -1.
         21    1    1    2  503  505  0.32972418412E+02  0.16243489437E+02 -0.10741555443E+03  0.11353031604E+03  0.00000000000E+00 0.  1.
         21    1    1    2  504  503  0.28613608301E+02  0.16429310845E+02 -0.31274473120E+02  0.45461560728E+02  0.00000000000E+00 0.  1.
         21    1    1    2  505  501  0.61255201705E+02 -0.24158634537E+02 -0.24533705704E+03  0.25401990260E+03  0.00000000000E+00 0.  1.
          2    1    1    2  501    0 -0.12284122842E+03 -0.85141657453E+01 -0.90065242548E+03  0.90903094003E+03  0.00000000000E+00 0. -1.
<scales pt_clust_3="30.96112" pt_clust_4="32.99486" pt_clust_5="30.96112" pt_clust_6="112.52644"></scales>
<clustering>
<clus scale="   30.961">  3  5 -1 -1</clus>
<clus scale="   32.995">  1  4  2 -1</clus>
<clus scale="  112.526">  2  6  1 -1</clus>
<clus scale="   32.995">  1  3  2 -1</clus>
</clustering>
</event>
<event>
 6    0  0.6851428E+002  0.1142351E+03  0.7546771E-02  0.1252922E+00
          2   -1    0    0  503    0 -0.00000000000E+00  0.00000000000E+00  0.25001051632E+04  0.25001051632E+04  0.00000000000E+00 0.  1.
         21   -1    0    0  505  502  0.00000000000E+00 -0.00000000000E+00 -0.24150279510E+03  0.24150279510E+03  0.00000000000E+00 0.  1.
         21    1    1    2  503  502 -0.13489898800E+03 -0.77099878064E+02  0.20814709430E+02  0.15676536700E+03  0.00000000000E+00 0.  1.
         21    1    1    2  504  501  0.84876310468E+02  0.55905463153E+02  0.89864119309E+03  0.90437016913E+03  0.00000000000E+00 0.  1.
         21    1    1    2  505  504  0.25754912950E+02  0.45586066501E+02 -0.16644597686E+03  0.17448687118E+03  0.00000000000E+00 0.  1.
          2    1    1    2  501    0  0.24267764581E+02 -0.24391651589E+02  0.15055924424E+04  0.15059855510E+04  0.00000000000E+00 0.  1.
<scales pt_clust_3="114.23514" pt_clust_4="14000.00000" pt_clust_5="52.32100" pt_clust_6="34.40751"></scales>
<clustering>
<clus scale="   34.408">  1  6  2 -1</clus>
<clus scale="   52.321">  2  5  1 -1</clus>
<clus scale="  114.235">  2  3  1 -1</clus>
<clus scale="   52.321">  2  3  1 -1</clus>
</clustering>
</event>
<event>
 6    0  0.6851428E+002  0.1278468E+03  0.7546771E-02  0.1230686E+00
         21   -1    0    0  503  502  0.00000000000E+00  0.00000000000E+00  0.53585537786E+03  0.53585537786E+03  0.00000000000E+00 0.  1.
          2   -1    0    0  504    0 -0.00000000000E+00 -0.00000000000E+00 -0.89828837986E+02  0.89828837986E+02  0.00000000000E+00 0.  1.
         21    1    1    2  503  505 -0.26750232908E+02  0.21304081900E+02  0.13148654896E+03  0.13586077956E+03  0.00000000000E+00 0.  1.
         21    1    1    2  504  502 -0.32547110129E+02 -0.40525199466E+02  0.22234901753E+03  0.22834336374E+03  0.00000000000E+00 0.  1.
         21    1    1    2  505  501 -0.53187349029E+02  0.60676055849E+02  0.11396624512E+03  0.13963804237E+03  0.00000000000E+00 0.  1.
          2    1    1    2  501    0  0.11248469207E+03 -0.41454938283E+02 -0.21775271732E+02  0.12184203017E+03  0.00000000000E+00 0.  1.
<scales pt_clust_3="32.82154" pt_clust_4="51.97698" pt_clust_5="32.82154" pt_clust_6="117.48628"></scales>
<clustering>
<clus scale="   32.822">  3  5 -1 -1</clus>
<clus scale="   51.977">  1  4  2 -1</clus>
<clus scale="  117.486">  2  6  1 -1</clus>
<clus scale="   51.977">  1  3  2 -1</clus>
</clustering>
</event>
<event>
 6    0  0.6851428E+002  0.7021201E+02  0.7546771E-02  0.1359374E+00
         21   -1    0    0  504  502  0.00000000000E+00  0.00000000000E+00  0.15907548992E+03  0.15907548992E+03  0.00000000000E+00 0.  1.
          2   -1    0    0  503    0 -0.00000000000E+00 -0.00000000000E+00 -0.18366869941E+04  0.18366869941E+04  0.00000000000E+00 0.  1.
         21    1    1    2  503  502 -0.36476091553E+01  0.65903149296E+02  0.12938703491E+03  0.14524990514E+03  0.00000000000E+00 0.  1.
         21    1    1    2  504  505  0.71043977703E+02 -0.23856599708E+02 -0.76968315237E+02  0.10742674559E+03  0.00000000000E+00 0.  1.
         21    1    1    2  505  501 -0.32631589887E+02 -0.97641784549E+02 -0.46068146880E+03  0.47204465302E+03  0.00000000000E+00 0. -1.
          2    1    1    2  501    0 -0.34764778660E+02  0.55595234961E+02 -0.12693487551E+04  0.12710411803E+04  0.00000000000E+00 0.  1.
<scales pt_clust_3="66.80958" pt_clust_4="70.21201" pt_clust_5="14000.00000" pt_clust_6="65.56996"></scales>
<clustering>
<clus scale="   65.570">  2  6  1 -1</clus>
<clus scale="   66.810">  1  3  2 -1</clus>
<clus scale="   70.212">  1  4  2 -1</clus>
<clus scale="   66.810">  1  3  2 -1</clus>
</clustering>
</event>
<event>
 6    0  0.6851428E+002  0.1305351E+03  0.7546771E-02  0.1226664E+00
          2   -1    0    0  505    0 -0.00000000000E+00  0.00000000000E+00  0.13599323748E+04  0.13599323748E+04  0.00000000000E+00 0.  1.
         21   -1    0    0  501  502  0.00000000000E+00 -0.00000000000E+00 -0.26237400015E+03  0.26237400015E+03  0.00000000000E+00 0.  1.
         21    1    1    2  503  504 -0.64262372645E+01  0.63452327488E+02  0.16957846939E+03  0.18117492009E+03  0.00000000000E+00 0.  1.
         21    1    1    2  504  502  0.19532029185E+02 -0.11692281745E+03 -0.23583577583E+03  0.26395256878E+03  0.00000000000E+00 0.  1.
         21    1    1    2  505  503 -0.59186323211E+02  0.47257165883E+02  0.22883995697E+03  0.24104768509E+03  0.00000000000E+00 0. -1.
          2    1    1    2  501    0  0.46080531291E+02  0.62133240829E+01  0.93497572415E+03  0.93613120101E+03  0.00000000000E+00 0.  1.
<scales pt_clust_3="51.88541" pt_clust_4="118.60151" pt_clust_5="51.88541" pt_clust_6="46.49753"></scales>
<clustering>
<clus scale="   46.498">  1  6  2 -1</clus>
<clus scale="   51.885">  3  5 -1 -1</clus>
<clus scale="  118.602">  2  4  1 -1</clus>
<clus scale="  118.602">  2  3  1 -1</clus>
</clustering>
</event>
<event>
 6    0  0.6851428E+002  0.1406972E+03  0.7546771E-02  0.1212394E+00
         21   -1    0    0  501  502  0.00000000000E+00  0.00000000000E+00  0.21837881632E+03  0.21837881632E+03  0.00000000000E+00 0. -1.
          2   -1    0    0  505    0 -0.00000000000E+00 -0.00000000000E+00 -0.67403087364E+03  0.67403087364E+03  0.00000000000E+00 0.  1.
         21    1    1    2  503  502  0.21583829320E+02  0.12017147665E+03  0.40385838719E+02  0.12860039447E+03  0.00000000000E+00 0. -1.
         21    1    1    2  504  503 -0.50087815329E+02 -0.20781739778E+02  0.42579654406E+02  0.68947058834E+02  0.00000000000E+00 0. -1.
         21    1    1    2  505  504 -0.53152505510E+02 -0.88815699944E+02  0.39592085478E+02  0.11081945060E+03  0.00000000000E+00 0. -1.
          2    1    1    2  501    0  0.81656491520E+02 -0.10574036930E+02 -0.57820963592E+03  0.58404278605E+03  0.00000000000E+00 0.  1.
<scales pt_clust_3="130.00797" pt_clust_4="38.93605" pt_clust_5="38.93605" pt_clust_6="82.33828"></scales>
<clustering>
<clus scale="   38.936">  4  5 -1 -1</clus>
<clus scale="   82.338">  2  6  1 -1</clus>
<clus scale="  130.008">  1  3  2 -1</clus>
<clus scale="  130.008">  1  3  2 -1</clus>
</clustering>
</event>
<event>
 6    0  0.6851428E+002  0.9922142E+02  0.7546771E-02  0.1281942E+00
          2   -1    0    0  503    0 -0.00000000000E+00  0.00000000000E+00  0.10442470466E+04  0.10442470466E+04  0.00000000000E+00 0. -1.
         21   -1    0    0  505  502  0.00000000000E+00 -0.00000000000E+00 -0.96420796546E+02  0.96420796546E+02  0.00000000000E+00 0. -1.
         21    1    1    2  503  504 -0.22369690422E+02 -0.94738405200E+02  0.10920192373E+03  0.14629022051E+03  0.00000000000E+00 0. -1.
         21    1    1    2  504  502 -0.35278061989E+01 -0.35637412411E+02 -0.66675966887E+02  0.75684576634E+02  0.00000000000E+00 0. -1.
         21    1    1    2  505  501  0.10243445130E+02  0.79256193788E+02  0.28202267636E+03  0.29312670025E+03  0.00000000000E+00 0.  1.
          2    1    1    2  501    0  0.15654051491E+02  0.51119623823E+02  0.62327761687E+03  0.62556634577E+03  0.00000000000E+00 0. -1.
<scales pt_clust_3="14000.00000" pt_clust_4="35.81160" pt_clust_5="99.22142" pt_clust_6="51.87197"></scales>
<clustering>
<clus scale="   35.812">  2  4  1 -1</clus>
<clus scale="   51.872">  1  6  2 -1</clus>
<clus scale="   99.221">  1  5  2 -1</clus>
<clus scale="   35.812">  2  3  1 -1</clus>
</clustering>
</event>
<event>
 6    0  0.6851428E+002  0.8872883E+02  0.7546771E-02  0.1305960E+00
          2   -1    0    0  503    0 -0.00000000000E+00  0.00000000000E+00  0.26878692134E+04  0.26878692134E+04  0.00000000000E+00 0.  1.
         21   -1    0    0  505  502  0.00000000000E+00 -0.00000000000E+00 -0.14197268917E+04  0.14197268917E+04  0.00000000000E+00 0. -1.
         21    1    1    2  503  504 -0.68065964892E+02  0.53149408020E+02  0.22688023409E+04  0.22704453082E+04  0.00000000000E+00 0.  1.
         21    1    1    2  504  502  0.11262825462E+03 -0.13725101343E+02  0.32067094227E+03  0.34015195922E+03  0.00000000000E+00 0. -1.
         21    1    1    2  505  501 -0.35017654636E+02 -0.10376207476E+02 -0.14062596357E+04  0.14067338288E+04  0.00000000000E+00 0. -1.
          2    1    1    2  501    0 -0.95446350886E+01 -0.29048099200E+02  0.84928674222E+02  0.90265008897E+02  0.00000000000E+00 0.  1.
<scales pt_clust_3="88.72883" pt_clust_4="14000.00000" pt_clust_5="36.52421" pt_clust_6="30.57601"></scales>
<clustering>
<clus scale="   30.576">  1  6  2 -1</clus>
<clus scale="   36.524">  2  5  1 -1</clus>
<clus scale="   88.729">  1  3  2 -1</clus>
<clus scale="   36.524">  2  3  1 -1</clus>
</clustering>
</event>
<event>
 6    0  0.6851428E+002  0.9573623E+02  0.7546771E-02  0.1289526E+00
         21   -1    0    0  503  502  0.00000000000E+00  0.00000000000E+00  0.16783917280E+04  0.16783917280E+04  0.00000000000E+00 0.  1.
         -4   -1    0    0    0  501 -0.00000000000E+00 -0.00000000000E+00 -0.11319361613E+03  0.11319361613E+03  0.00000000000E+00 0. -1.
         21    1    1    2  503  505 -0.46328702951E+02  0.15867935964E+02  0.16849330501E+03  0.17546547792E+03  0.00000000000E+00 0.  1.
         21    1    1    2  504  502 -0.40263674849E+01  0.44162412987E+02  0.82007657075E+03  0.82127468745E+03  0.00000000000E+00 0.  1.
         21    1    1    2  505  501 -0.46506241943E+02 -0.67881073283E+02  0.66102947072E+03  0.66613109206E+03  0.00000000000E+00 0.  1.
         -4    1    1    2    0  504  0.96861312379E+02  0.78507243322E+01 -0.84401234613E+02  0.12871408669E+03  0.00000000000E+00 0. -1.
<scales pt_clust_3="53.22617" pt_clust_4="44.34558" pt_clust_5="14000.00000" pt_clust_6="95.73623"></scales>
<clustering>
<clus scale="   44.346">  1  4  2 -1</clus>
<clus scale="   53.226">  1  3  2 -1</clus>
<clus scale="   95.736">  2  6  1 -1</clus>
<clus scale="   44.346">  1  3  2 -1</clus>
</clustering>
</event>
<event>
 6    0  0.6851428E+002  0.1130176E+03  0.7546771E-02  0.1255082E+00
         21   -1    0    0  503  502  0.00000000000E+00  0.00000000000E+00  0.54732839833E+02  0.54732839833E+02  0.00000000000E+00 0. -1.
          1   -1    0    0  505    0 -0.00000000000E+00 -0.00000000000E+00 -0.22180771967E+04  0.22180771967E+04  0.00000000000E+00 0. -1.
         21    1    1    2  503  504  0.32189637939E+02  0.15215114534E+02  0.26265218852E+02  0.44244030358E+02  0.00000000000E+00 0. -1.
         21    1    1    2  504  501  0.85988349422E+02 -0.33053087077E+02 -0.10732636484E+03  0.14144062850E+03  0.00000000000E+00 0.  1.
         21    1    1    2  505  502 -0.24806937665E+02  0.22367525591E+02 -0.22239114799E+03  0.22488555548E+03  0.00000000000E+00 0. -1.
          1    1    1    2  501    0 -0.93371049695E+02 -0.45295530477E+01 -0.18598920629E+04  0.18622398222E+04  0.00000000000E+00 0. -1.
<scales pt_clust_3="35.54666" pt_clust_4="14000.00000" pt_clust_5="33.40195" pt_clust_6="113.01762"></scales>
<clustering>
<clus scale="   33.402">  2  5  1 -1</clus>
<clus scale="   35.547">  1  3  2 -1</clus>
<clus scale="  113.018">  2  6  1 -1</clus>
<clus scale="   35.547">  1  3  2 -1</clus>
</clustering>
</event>
<event>
 6    0  0.6851428E+002  0.1036276E+03  0.7546771E-02  0.1272847E+00
          2   -1    0    0  505    0 -0.00000000000E+00  0.00000000000E+00  0.12628565165E+04  0.12628565165E+04  0.00000000000E+00 0.  1.
         21   -1    0    0  503  502  0.00000000000E+00 -0.00000000000E+00 -0.13496100577E+03  0.13496100577E+03  0.00000000000E+00 0.  1.
         21    1    1    2  503  501 -0.91212935420E+02 -0.15983553804E+01  0.26447139649E+03  0.27976324614E+03  0.00000000000E+00 0.  1.
         21    1    1    2  504  502 -0.26676934863E+02 -0.37899573393E+02 -0.12093825997E+02  0.47898821951E+02  0.00000000000E+00 0.  1.
         21    1    1    2  505  504  0.12532587612E+03  0.56705064421E+00 -0.56373009557E+02  0.13742202508E+03  0.00000000000E+00 0.  1.
          2    1    1    2  501    0 -0.74360058339E+01  0.38930878129E+02  0.93189094983E+03  0.93273342913E+03  0.00000000000E+00 0.  1.
<scales pt_clust_3="103.62761" pt_clust_4="44.88104" pt_clust_5="14000.00000" pt_clust_6="39.63467"></scales>
<clustering>
<clus scale="   39.635">  1  6  2 -1</clus>
<clus scale="   44.881">  2  4  1 -1</clus>
<clus scale="  103.628">  1  3  2 -1</clus>
<clus scale="   44.881">  2  3  1 -1</clus>
</clustering>
</event>
<event>
 6    0  0.6851428E+002  0.9326921E+02  0.7546771E-02  0.1295123E+00
          1   -1    0    0  505    0 -0.00000000000E+00  0.00000000000E+00  0.65655670582E+03  0.65655670582E+03  0.00000000000E+00 0. -1.
         21   -1    0    0  503  502  0.00000000000E+00 -0.00000000000E+00 -0.10039386333E+04  0.10039386333E+04  0.00000000000E+00 0.  1.
         21    1    1    2  503  504 -0.29420808670E+02  0.22907601301E+02 -0.64423959703E+03  0.64531775163E+03  0.00000000000E+00 0.  1.
         21    1    1    2  504  501  0.62930660813E+02  0.90409854102E+02 -0.11964852916E+03  0.16263449916E+03  0.00000000000E+00 0.  1.
         21    1    1    2  505  502 -0.59953070434E+02 -0.59123459726E+02 -0.20838258502E+03  0.22475154256E+03  0.00000000000E+00 0.  1.
          1    1    1    2  501    0  0.26443218291E+02 -0.54193995677E+02  0.62488878370E+03  0.62779154579E+03  0.00000000000E+00 0. -1.
<scales pt_clust_3="37.28729" pt_clust_4="93.26921" pt_clust_5="14000.00000" pt_clust_6="60.16589"></scales>
<clustering>
<clus scale="   37.287">  2  3  1 -1</clus>
<clus scale="   60.166">  1  6  2 -1</clus>
<clus scale="   93.269">  1  4  2 -1</clus>
<clus scale="   37.287">  2  3  1 -1</clus>
</clustering>
</event>
<event>
 6    0  0.6851428E+002  0.8652170E+02  0.7546771E-02  0.1311500E+00
         21   -1    0    0  503  502  0.00000000000E+00  0.00000000000E+00  0.27222929330E+04  0.27222929330E+04  0.00000000000E+00 0. -1.
         -3   -1    0    0    0  501 -0.00000000000E+00 -0.00000000000E+00 -0.80788665689E+02  0.80788665689E+02  0.00000000000E+00 0. -1.
         21    1    1    2  503  505  0.45724809342E+02  0.79839467756E+02  0.23030013043E+04  0.23048384122E+04  0.00000000000E+00 0. -1.
         21    1    1    2  504  502 -0.57383812468E+02 -0.24160340346E+02  0.15496116050E+03  0.16700175222E+03  0.00000000000E+00 0. -1.
         21    1    1    2  505  501  0.48122682987E+02 -0.49041045501E+02  0.24775169639E+03  0.25710254730E+03  0.00000000000E+00 0. -1.
         -3    1    1    2    0  504 -0.36463679861E+02 -0.66380819091E+01 -0.64209893909E+02  0.74138886937E+02  0.00000000000E+00 0. -1.
<scales pt_clust_3="86.52170" pt_clust_4="14000.00000" pt_clust_5="61.58536" pt_clust_6="37.06297"></scales>
<clustering>
<clus scale="   37.063">  2  6  1 -1</clus>
<clus scale="   61.585">  2  5  1 -1</clus>
<clus scale="   86.522">  1  3  2 -1</clus>
<clus scale="   86.522">  1  3  2 -1</clus>
</clustering>
</event>
<event>
 6    0  0.6851428E+002  0.1192071E+03  0.7546771E-02  0.1244411E+00
         21   -1    0    0  505  502  0.00000000000E+00  0.00000000000E+00  0.10861881850E+03  0.10861881850E+03  0.00000000000E+00 0.  1.
         -1   -1    0    0    0  501 -0.00000000000E+00 -0.00000000000E+00 -0.66674189459E+03  0.66674189459E+03  0.00000000000E+00 0.  1.
         21    1    1    2  503  504  0.13383899878E+03  0.25834791078E+02 -0.18514502938E+02  0.13756126215E+03  0.00000000000E+00 0.  1.
         21    1    1    2  504  502  0.32891504329E+02 -0.32800917757E+02 -0.35925248531E+02  0.58722863901E+02  0.00000000000E+00 0. -1.
         21    1    1    2  505  501 -0.97045852600E+02 -0.35833854646E+02 -0.44410945928E+02  0.11258017039E+03  0.00000000000E+00 0.  1.
         -1    1    1    2    0  503 -0.69684650511E+02  0.42799981325E+02 -0.45927237869E+03  0.46649641665E+03  0.00000000000E+00 0.  1.
<scales pt_clust_3="14000.00000" pt_clust_4="46.45160" pt_clust_5="119.20710" pt_clust_6="80.10080"></scales>
<clustering>
<clus scale="   46.452">  1  4  2 -1</clus>
<clus scale="   80.101">  2  6  1 -1</clus>
<clus scale="  119.207">  1  5  2 -1</clus>
<clus scale="   46.452">  1  3  2 -1</clus>
</clustering>
</event>
<event>
 6    0  0.6851428E+002  0.5951213E+02  0.7546771E-02  0.1399891E+00
         21   -1    0    0  505  502  0.00000000000E+00  0.00000000000E+00  0.40065011657E+03  0.40065011657E+03  0.00000000000E+00 0. -1.
          2   -1    0    0  503    0 -0.00000000000E+00 -0.00000000000E+00 -0.17586477293E+04  0.17586477293E+04  0.00000000000E+00 0. -1.
         21    1    1    2  503  504  0.29340114627E+02  0.77995994523E+02 -0.21748254049E+03  0.23290099378E+03  0.00000000000E+00 0. -1.
         21    1    1    2  504  502  0.41647826271E+02 -0.53186502872E+01  0.26331585601E+02  0.49559881701E+02  0.00000000000E+00 0. -1.
         21    1    1    2  505  501 -0.82837329259E+02 -0.35255299141E+02  0.34902920180E+03  0.36045296911E+03  0.00000000000E+00 0. -1.
          2    1    1    2  501    0  0.11849388361E+02 -0.37422045095E+02 -0.15158758596E+04  0.15163840012E+04  0.00000000000E+00 0. -1.
<scales pt_clust_3="59.51213" pt_clust_4="42.80998" pt_clust_5="14000.00000" pt_clust_6="39.25325"></scales>
<clustering>
<clus scale="   39.253">  2  6  1 -1</clus>
<clus scale="   42.810">  1  4  2 -1</clus>
<clus scale="   59.512">  2  3  1 -1</clus>
<clus scale="   42.810">  1  3  2 -1</clus>
</clustering>
</event>
<event>
 6    0  0.6851428E+002  0.9380040E+02  0.7546771E-02  0.1293901E+00
          2   -1    0    0  505    0 -0.00000000000E+00  0.00000000000E+00  0.15227516645E+04  0.15227516645E+04  0.00000000000E+00 0. -1.
         21   -1    0    0  503  502  0.00000000000E+00 -0.00000000000E+00 -0.65288269373E+02  0.65288269373E+02  0.00000000000E+00 0. -1.
         21    1    1    2  503  501  0.68494449667E+02  0.74357428456E+02 -0.13318903768E+02  0.10197014269E+03  0.00000000000E+00 0. -1.
         21    1    1    2  504  502 -0.25237923064E+02 -0.53413463741E+02  0.22178611518E+03  0.22951913157E+03  0.00000000000E+00 0. -1.
         21    1    1    2  505  504  0.19455741700E+02  0.26827581883E+02  0.11136603981E+03  0.11619225386E+03  0.00000000000E+00 0.  1.
          2    1    1    2  501    0 -0.62712268303E+02 -0.47771546598E+02  0.11376301439E+04  0.11403584058E+04  0.00000000000E+00 0. -1.
<scales pt_clust_3="93.80040" pt_clust_4="14000.00000" pt_clust_5="33.13978" pt_clust_6="53.73960"></scales>
<clustering>
<clus scale="   33.140">  1  5  2 -1</clus>
<clus scale="   53.740">  1  6  2 -1</clus>
<clus scale="   93.800">  2  3  1 -1</clus>
<clus scale="   93.800">  2  3  1 -1</clus>
</clustering>
</event>
<event>
 6    0  0.6851428E+002  0.7007854E+02  0.7546771E-02  0.1359826E+00
         21   -1    0    0  505  502  0.00000000000E+00  0.00000000000E+00  0.18574753962E+03  0.18574753962E+03  0.00000000000E+00 0.  1.
          2   -1    0    0  504    0 -0.00000000000E+00 -0.00000000000E+00 -0.27598619877E+03  0.27598619877E+03  0.00000000000E+00 0.  1.
         21    1    1    2  503  502  0.17616564972E+01  0.59939793319E+02  0.34465386893E+02  0.69164623547E+02  0.00000000000E+00 0.  1.
         21    1    1    2  504  503  0.56655663364E+02  0.37038328685E+02 -0.53279968514E+02  0.86142074666E+02  0.00000000000E+00 0.  1.
         21    1    1    2  505  501 -0.49108039302E+02  0.16358587618E+01  0.98309760975E+02  0.10990488916E+03  0.00000000000E+00 0.  1.
          2    1    1    2  501    0 -0.93092805584E+01 -0.98613980765E+02 -0.16973383850E+03  0.19652215101E+03  0.00000000000E+00 0.  1.
<scales pt_clust_3="14000.00000" pt_clust_4="59.86621" pt_clust_5="49.13528" pt_clust_6="70.07854"></scales>
<clustering>
<clus scale="   49.135">  1  5  2 -1</clus>
<clus scale="   59.866">  2  4  1 -1</clus>
<clus scale="   70.079">  2  6  1 -1</clus>
<clus scale="   49.135">  1  3  2 -1</clus>
</clustering>
</event>
<event>
 6    0  0.6851428E+002  0.1085073E+03  0.7546771E-02  0.1263359E+00
         21   -1    0    0  505  502  0.00000000000E+00  0.00000000000E+00  0.17279398907E+03  0.17279398907E+03  0.00000000000E+00 0.  1.
          2   -1    0    0  503    0 -0.00000000000E+00 -0.00000000000E+00 -0.89054249716E+03  0.89054249716E+03  0.00000000000E+00 0. -1.
         21    1    1    2  503  504 -0.67995308298E+02  0.86105499852E+02 -0.10956702465E+03  0.15505628638E+03  0.00000000000E+00 0.  1.
         21    1    1    2  504  502  0.19634413664E+02  0.23484897858E+02  0.97227568829E+02  0.10193257952E+03  0.00000000000E+00 0.  1.
         21    1    1    2  505  501 -0.60246224766E+02 -0.81985621990E+02 -0.10297073305E+02  0.10226084065E+03  0.00000000000E+00 0.  1.
          2    1    1    2  501    0  0.10860711940E+03 -0.27604775720E+02 -0.69511197897E+03  0.70408677969E+03  0.00000000000E+00 0. -1.
<scales pt_clust_3="14000.00000" pt_clust_4="30.61128" pt_clust_5="82.56216" pt_clust_6="108.50727"></scales>
<clustering>
<clus scale="   30.611">  1  4  2 -1</clus>
<clus scale="   82.562">  1  5  2 -1</clus>
<clus scale="  108.507">  2  6  1 -1</clus>
<clus scale="   30.611">  1  3  2 -1</clus>
</clustering>
</event>
<event>
 6    0  0.6851428E+002  0.1242026E+03  0.7546771E-02  0.1236321E+00
          1   -1    0    0  505    0 -0.00000000000E+00  0.00000000000E+00  0.11394656906E+04  0.11394656906E+04  0.00000000000E+00 0. -1.
         21   -1    0    0  503  502  0.00000000000E+00 -0.00000000000E+00 -0.98214622060E+03  0.98214622060E+03  0.00000000000E+00 0.  1.
         21    1    1    2  503  504  0.54173308128E+02 -0.60283951789E+01 -0.17883338355E+03  0.18695579139E+03  0.00000000000E+00 0.  1.
         21    1    1    2  504  501 -0.17207253960E+02  0.76294669230E+02 -0.11210235915E+03  0.13668908175E+03  0.00000000000E+00 0.  1.
         21    1    1    2  505  502 -0.65814968408E+02 -0.19066652025E+03 -0.65624769938E+03  0.68654670267E+03  0.00000000000E+00 0.  1.
          1    1    1    2  501    0  0.28848914240E+02  0.12040024620E+03  0.11045029121E+04  0.11114203354E+04  0.00000000000E+00 0. -1.
<scales pt_clust_3="54.50770" pt_clust_4="75.86568" pt_clust_5="14000.00000" pt_clust_6="124.20263"></scales>
<clustering>
<clus scale="   54.508">  2  3  1 -1</clus>
<clus scale="   75.866">  2  4  1 -1</clus>
<clus scale="  124.203">  1  6  2 -1</clus>
<clus scale="   54.508">  2  3  1 -1</clus>
</clustering>
</event>
<event>
 6    0  0.6851428E+002  0.7152500E+02  0.7546771E-02  0.1354983E+00
         21   -1    0    0  503  502  0.00000000000E+00  0.00000000000E+00  0.16317560451E+02  0.16317560451E+02  0.00000000000E+00 0. -1.
          1   -1    0    0  504    0 -0.00000000000E+00 -0.00000000000E+00 -0.24960353354E+04  0.24960353354E+04  0.00000000000E+00 0.  1.
         21    1    1    2  503  501  0.96919368442E+01 -0.82339649844E+02 -0.19310639442E+03  0.21015192395E+03  0.00000000000E+00 0. -1.
         21    1    1    2  504  505  0.65710417953E+01 -0.61448367894E+02 -0.48810405974E+03  0.49200066427E+03  0.00000000000E+00 0. -1.
         21    1    1    2  505  502  0.14119880638E+02  0.28016124895E+02 -0.61183013096E+02  0.68757802284E+02  0.00000000000E+00 0. -1.
          1    1    1    2  501    0 -0.30382859278E+02  0.11577189284E+03 -0.17373243077E+04  0.17414425053E+04  0.00000000000E+00 0.  1.
<scales pt_clust_3="14000.00000" pt_clust_4="57.76130" pt_clust_5="31.37315" pt_clust_6="71.52500"></scales>
<clustering>
<clus scale="   31.373">  1  5  2 -1</clus>
<clus scale="   57.761">  2  4  1 -1</clus>
<clus scale="   71.525">  2  6  1 -1</clus>
<clus scale="   31.373">  1  3  2 -1</clus>
</clustering>
</event>
<event>
 6    0  0.6851428E+002  0.6257637E+02  0.7546771E-02  0.1387327E+00
         21   -1    0    0  503  502  0.00000000000E+00  0.00000000000E+00  0.11090082966E+03  0.11090082966E+03  0.00000000000E+00 0.  1.
          2   -1    0    0  505    0 -0.00000000000E+00 -0.00000000000E+00 -0.43138467388E+03  0.43138467388E+03  0.00000000000E+00 0.  1.
         21    1    1    2  503  501  0.26147216029E+02  0.35247620742E+02  0.32427351570E+02  0.54567433547E+02  0.00000000000E+00 0. -1.
         21    1    1    2  504  502 -0.59654538986E+02 -0.33344691821E+02  0.48429839726E+01  0.68512677572E+02  0.00000000000E+00 0.  1.
         21    1    1    2  505  504  0.79950494187E+02 -0.39951365657E+02 -0.43744761211E+02  0.99507774933E+02  0.00000000000E+00 0.  1.
          2    1    1    2  501    0 -0.46443171230E+02  0.38048436736E+02 -0.31400941855E+03  0.31969761749E+03  0.00000000000E+00 0.  1.
<scales pt_clust_3="43.88703" pt_clust_4="47.58357" pt_clust_5="62.57637" pt_clust_6="14000.00000"></scales>
<clustering>
<clus scale="   43.887">  1  3  2 -1</clus>
<clus scale="   47.584">  1  4  2 -1</clus>
<clus scale="   62.576">  1  5  2 -1</clus>
<clus scale="   43.887">  1  3  2 -1</clus>
</clustering>
</event>
<event>
 6    0  0.6851428E+002  0.1261897E+03  0.7546771E-02  0.1233222E+00
         21   -1    0    0  503  502  0.00000000000E+00  0.00000000000E+00  0.12782851688E+04  0.12782851688E+04  0.00000000000E+00 0.  1.
         -1   -1    0    0    0  501 -0.00000000000E+00 -0.00000000000E+00 -0.72123016247E+02  0.72123016247E+02  0.00000000000E+00 0.  1.
         21    1    1    2  503  504 -0.55046752457E+02  0.94274874968E+01  0.50119446620E+03  0.50429645590E+03  0.00000000000E+00 0.  1.
         21    1    1    2  504  501 -0.54500587333E+02 -0.45219649632E+02  0.27039752213E+03  0.27951735314E+03  0.00000000000E+00 0.  1.
         21    1    1    2  505  502  0.27230903117E+02 -0.82096741704E+02  0.41208303018E+03  0.42106272792E+03  0.00000000000E+00 0.  1.
         -1    1    1    2    0  505  0.82316436673E+02  0.11788890384E+03  0.22487134028E+02  0.14553164808E+03  0.00000000000E+00 0.  1.
<scales pt_clust_3="55.84821" pt_clust_4="14000.00000" pt_clust_5="77.06830" pt_clust_6="126.18968"></scales>
<clustering>
<clus scale="   55.848">  1  3  2 -1</clus>
<clus scale="   77.068">  1  5  2 -1</clus>
<clus scale="  126.190">  2  6  1 -1</clus>
<clus scale="   55.848">  1  3  2 -1</clus>
</clustering>
</event>
<event>
 6    0  0.6851428E+002  0.1407929E+03  0.7546771E-02  0.1212266E+00
          1   -1    0    0  503    0 -0.00000000000E+00  0.00000000000E+00  0.10311825990E+03  0.10311825990E+03  0.00000000000E+00 0. -1.
         21   -1    0    0  504  502  0.00000000000E+00 -0.00000000000E+00 -0.50680140582E+03  0.50680140582E+03  0.00000000000E+00 0.  1.
         21    1    1    2  503  505 -0.43932977529E+02 -0.26413984023E+02 -0.15864530688E+03  0.16672173962E+03  0.00000000000E+00 0.  1.
         21    1    1    2  504  501  0.91926223179E+02  0.65638736336E+02 -0.66600279626E+02  0.13112769144E+03  0.00000000000E+00 0.  1.
         21    1    1    2  505  502 -0.41232126725E+02 -0.89238446789E+02 -0.22365671643E+03  0.24430701067E+03  0.00000000000E+00 0.  1.
          1    1    1    2  501    0 -0.67611189246E+01  0.50013694476E+02  0.45219157012E+02  0.67763223987E+02  0.00000000000E+00 0. -1.
<scales pt_clust_3="33.57089" pt_clust_4="132.89625" pt_clust_5="33.57089" pt_clust_6="50.46863"></scales>
<clustering>
<clus scale="   33.571">  3  5 -1 -1</clus>
<clus scale="   50.469">  1  6  2 -1</clus>
<clus scale="  132.896">  1  4  2 -1</clus>
<clus scale="  140.793">  2  3  1 -1</clus>
</clustering>
</event>
<event>
 6    0  0.6851428E+002  0.1767323E+03  0.7546771E-02  0.1171003E+00
          2   -1    0    0  504    0 -0.00000000000E+00  0.00000000000E+00  0.14291843013E+04  0.14291843013E+04  0.00000000000E+00 0. -1.
         21   -1    0    0  501  502  0.00000000000E+00 -0.00000000000E+00 -0.41020053247E+03  0.41020053247E+03  0.00000000000E+00 0.  1.
         21    1    1    2  503  505 -0.14566529335E+03  0.13078846967E+03  0.28183286631E+03  0.34315268616E+03  0.00000000000E+00 0.  1.
         21    1    1    2  504  503 -0.38890264948E+02 -0.21645817372E+02  0.16736649623E+03  0.17318353899E+03  0.00000000000E+00 0.  1.
         21    1    1    2  505  502  0.14744844550E+03 -0.95422305950E+02 -0.35571130388E+03  0.39670769121E+03  0.00000000000E+00 0.  1.
          2    1    1    2  501    0  0.37107112796E+02 -0.13720346344E+02  0.92549571015E+03  0.92634091739E+03  0.00000000000E+00 0. -1.
<scales pt_clust_3="14000.00000" pt_clust_4="37.21038" pt_clust_5="176.73235" pt_clust_6="39.56243"></scales>
<clustering>
<clus scale="   39.562">  1  6  2 -1</clus>
<clus scale="   37.210">  1  4  2 -1</clus>
<clus scale="  176.732">  2  5  1 -1</clus>
<clus scale="  176.732">  2  3  1 -1</clus>
</clustering>
</event>
<event>
 6    0  0.6851428E+002  0.1406800E+03  0.7546771E-02  0.1212417E+00
          2   -1    0    0  503    0 -0.00000000000E+00  0.00000000000E+00  0.13468500531E+04  0.13468500531E+04  0.00000000000E+00 0. -1.
         21   -1    0    0  504  502  0.00000000000E+00 -0.00000000000E+00 -0.90054564121E+03  0.90054564121E+03  0.00000000000E+00 0. -1.
         21    1    1    2  503  505  0.46353679685E+02 -0.14989818889E+03 -0.26960969098E+03  0.31194152677E+03  0.00000000000E+00 0. -1.
         21    1    1    2  504  501  0.13066472821E+02  0.47315250487E+02 -0.15743659069E+03  0.16491132686E+03  0.00000000000E+00 0.  1.
         21    1    1    2  505  502 -0.24983569301E+02 -0.33605040877E+02 -0.44387606807E+03  0.44584688102E+03  0.00000000000E+00 0.  1.
          2    1    1    2  501    0 -0.34436583205E+02  0.13618797928E+03  0.13172267616E+04  0.13246959597E+04  0.00000000000E+00 0. -1.
<scales pt_clust_3="140.67999" pt_clust_4="35.68087" pt_clust_5="41.87454" pt_clust_6="14000.00000"></scales>
<clustering>
<clus scale="   41.875">  2  5  1 -1</clus>
<clus scale="   35.681">  2  4  1 -1</clus>
<clus scale="  140.680">  2  3  1 -1</clus>
<clus scale="   41.875">  2  3  1 -1</clus>
</clustering>
</event>
<event>
 6    0  0.6851428E+002  0.1212058E+03  0.7546771E-02  0.1241121E+00
         21   -1    0    0  504  502  0.00000000000E+00  0.00000000000E+00  0.21462032144E+02  0.21462032144E+02  0.00000000000E+00 0. -1.
          2   -1    0    0  505    0 -0.00000000000E+00 -0.00000000000E+00 -0.22453134668E+04  0.22453134668E+04  0.00000000000E+00 0. -1.
         21    1    1    2  503  502  0.95105386095E+01  0.31671230502E+02 -0.99755571041E+02  0.10509372550E+03  0.00000000000E+00 0. -1.
         21    1    1    2  504  501 -0.30356517814E+02 -0.21941256255E+02 -0.55325357529E+02  0.66811915745E+02  0.00000000000E+00 0. -1.
         21    1    1    2  505  503 -0.68407122118E+02  0.77385049333E+02 -0.23298854556E+03  0.25485612133E+03  0.00000000000E+00 0. -1.
          2    1    1    2  501    0  0.89253101323E+02 -0.87115023580E+02 -0.18357819606E+04  0.18400137364E+04  0.00000000000E+00 0. -1.
<scales pt_clust_3="33.06837" pt_clust_4="30.06438" pt_clust_5="121.20577" pt_clust_6="14000.00000"></scales>
<clustering>
<clus scale="   33.068">  1  3  2 -1</clus>
<clus scale="   30.064">  1  4  2 -1</clus>
<clus scale="  121.206">  1  5  2 -1</clus>
<clus scale="   33.068">  1  3  2 -1</clus>
</clustering>
</event>
<event>
 6    0  0.6851428E+002  0.3017268E+03  0.7546771E-02  0.1084381E+00
         21   -1    0    0  505  502  0.00000000000E+00  0.00000000000E+00  0.16561189679E+03  0.16561189679E+03  0.00000000000E+00 0.  1.
          2   -1    0    0  503    0 -0.00000000000E+00 -0.00000000000E+00 -0.89940706833E+03  0.89940706833E+03  0.00000000000E+00 0.  1.
         21    1    1    2  503  504 -0.40640540973E-02 -0.50056332930E+02 -0.65766337222E+02  0.82648941884E+02  0.00000000000E+00 0. -1.
         21    1    1    2  504  502  0.27607129479E+03 -0.63827057922E+02 -0.47970272255E+02  0.28738545571E+03  0.00000000000E+00 0.  1.
         21    1    1    2  505  501 -0.22216451984E+03  0.85001068758E+02 -0.38894408316E+03  0.45591639079E+03  0.00000000000E+00 0.  1.
          2    1    1    2  501    0 -0.53902710902E+02  0.28882322094E+02 -0.23111447891E+03  0.23906817675E+03  0.00000000000E+00 0.  1.
<scales pt_clust_3="50.05633" pt_clust_4="285.81578" pt_clust_5="49.02382" pt_clust_6="49.02382"></scales>
<clustering>
<clus scale="   49.024">  5  6 -1 -1</clus>
<clus scale="   50.056">  2  3  1 -1</clus>
<clus scale="  285.816">  1  4  2 -1</clus>
<clus scale="  285.816">  1  3  2 -1</clus>
</clustering>
</event>
<event>
 6    0  0.6851428E+002  0.1512183E+03  0.7546771E-02  0.1198984E+00
         21   -1    0    0  504  502  0.00000000000E+00  0.00000000000E+00  0.13593611605E+03  0.13593611605E+03  0.00000000000E+00 0. -1.
          3   -1    0    0  503    0 -0.00000000000E+00 -0.00000000000E+00 -0.99671804404E+03  0.99671804404E+03  0.00000000000E+00 0. -1.
         21    1    1    2  503  505 -0.67184288690E+02  0.14096829264E+03  0.44080817941E+02  0.16226184606E+03  0.00000000000E+00 0. -1.
         21    1    1    2  504  501 -0.36796427425E+02 -0.25821289063E+02 -0.51086265398E+02  0.68047943043E+02  0.00000000000E+00 0.  1.
         21    1    1    2  505  502  0.29677715702E+02  0.16220270178E+02  0.14993509848E+01  0.33854276352E+02  0.00000000000E+00 0. -1.
          3    1    1    2  501    0  0.74303000413E+02 -0.13136727376E+03 -0.85527583153E+03  0.86849009464E+03  0.00000000000E+00 0. -1.
<scales pt_clust_3="14000.00000" pt_clust_4="42.54291" pt_clust_5="33.82106" pt_clust_6="151.21827"></scales>
<clustering>
<clus scale="   33.821">  1  5  2 -1</clus>
<clus scale="   42.543">  1  4  2 -1</clus>
<clus scale="  151.218">  2  6  1 -1</clus>
<clus scale="   33.821">  1  3  2 -1</clus>
</clustering>
</event>
<event>
 6    0  0.6851428E+002  0.3862943E+03  0.7546771E-02  0.1048632E+00
         -2   -1    0    0    0  501 -0.00000000000E+00  0.00000000000E+00  0.21900641992E+03  0.21900641992E+03  0.00000000000E+00 0. -1.
         21   -1    0    0  505  502  0.00000000000E+00 -0.00000000000E+00 -0.14265822781E+04  0.14265822781E+04  0.00000000000E+00 0. -1.
         21    1    1    2  503  502  0.17440756760E+03  0.29581264465E+03 -0.27292902993E+03  0.43864949077E+03  0.00000000000E+00 0. -1.
         21    1    1    2  504  501 -0.14166366494E+03 -0.40340886656E+03 -0.84483796635E+03  0.94686772939E+03  0.00000000000E+00 0. -1.
         21    1    1    2  505  504  0.36764715278E+02  0.15035551516E+02 -0.13124572061E+03  0.13712458306E+03  0.00000000000E+00 0.  1.
         -2    1    1    2    0  503 -0.69508617932E+02  0.92560670388E+02  0.41436858753E+02  0.12294689477E+03  0.00000000000E+00 0. -1.
<scales pt_clust_3="14000.00000" pt_clust_4="386.29426" pt_clust_5="39.72042" pt_clust_6="115.44305"></scales>
<clustering>
<clus scale="   39.720">  2  5  1 -1</clus>
<clus scale="  115.443">  1  6  2 -1</clus>
<clus scale="  386.294">  2  4  1 -1</clus>
<clus scale="   39.720">  2  3  1 -1</clus>
</clustering>
</event>
<event>
 6    0  0.6851428E+002  0.8971962E+02  0.7546771E-02  0.1303532E+00
          2   -1    0    0  504    0 -0.00000000000E+00  0.00000000000E+00  0.12882083368E+04  0.12882083368E+04  0.00000000000E+00 0.  1.
         21   -1    0    0  505  502  0.00000000000E+00 -0.00000000000E+00 -0.41823929809E+02  0.41823929809E+02  0.00000000000E+00 0. -1.
         21    1    1    2  503  502  0.87235311473E+02 -0.12194797511E+02  0.44114604418E+02  0.98512999026E+02  0.00000000000E+00 0. -1.
         21    1    1    2  504  503  0.45838051996E+02  0.38521350591E+02  0.31818558388E+03  0.32377011482E+03  0.00000000000E+00 0.  1.
         21    1    1    2  505  501 -0.97202703146E+01  0.40743568758E+02  0.69453462138E+02  0.81106753437E+02  0.00000000000E+00 0.  1.
          2    1    1    2  501    0 -0.12335309315E+03 -0.67070121838E+02  0.81463075652E+03  0.82664239928E+03  0.00000000000E+00 0.  1.
<scales pt_clust_3="14000.00000" pt_clust_4="61.39987" pt_clust_5="41.88702" pt_clust_6="89.71962"></scales>
<clustering>
<clus scale="   41.887">  2  5  1 -1</clus>
<clus scale="   61.400">  1  4  2 -1</clus>
<clus scale="   89.720">  1  6  2 -1</clus>
<clus scale="   41.887">  2  3  1 -1</clus>
</clustering>
</event>
<event>
 6    0  0.6851428E+002  0.2521763E+03  0.7546771E-02  0.1111937E+00
          1   -1    0    0  504    0 -0.00000000000E+00  0.00000000000E+00  0.14714476374E+04  0.14714476374E+04  0.00000000000E+00 0.  1.
         21   -1    0    0  503  502  0.00000000000E+00 -0.00000000000E+00 -0.19512481438E+03  0.19512481438E+03  0.00000000000E+00 0. -1.
         21    1    1    2  503  505  0.66827922604E+02  0.60015250849E+01 -0.90312343767E+02  0.11250915065E+03  0.00000000000E+00 0. -1.
         21    1    1    2  504  502 -0.26902581628E+03  0.74504521176E+02  0.53753159886E+03  0.60569467000E+03  0.00000000000E+00 0.  1.
         21    1    1    2  505  501  0.20430128594E+03 -0.47938104880E+02  0.12654502607E+03  0.24505248613E+03  0.00000000000E+00 0.  1.
          1    1    1    2  501    0 -0.21033922630E+01 -0.32567941382E+02  0.70255854189E+03  0.70331614502E+03  0.00000000000E+00 0.  1.
<scales pt_clust_3="67.02616" pt_clust_4="14000.00000" pt_clust_5="252.17629" pt_clust_6="32.63579"></scales>
<clustering>
<clus scale="   32.636">  1  6  2 -1</clus>
<clus scale="   67.026">  2  3  1 -1</clus>
<clus scale="  252.176">  2  5  1 -1</clus>
<clus scale="   67.026">  2  3  1 -1</clus>
</clustering>
</event>
<event>
 6    0  0.6851428E+002  0.7939074E+02  0.7546771E-02  0.1330789E+00
         21   -1    0    0  504  502  0.00000000000E+00  0.00000000000E+00  0.99293927139E+02  0.99293927139E+02  0.00000000000E+00 0.  1.
          2   -1    0    0  505    0 -0.00000000000E+00 -0.00000000000E+00 -0.11867876222E+04  0.11867876222E+04  0.00000000000E+00 0. -1.
         21    1    1    2  503  502  0.26090641874E+02 -0.20612138371E+02 -0.33207582403E+01  0.33415704046E+02  0.00000000000E+00 0.  1.
         21    1    1    2  504  501 -0.14375232169E+01  0.13286917690E+03  0.12538075245E+02  0.13346717939E+03  0.00000000000E+00 0.  1.
         21    1    1    2  505  503 -0.25781764981E+02 -0.33933068782E+02 -0.36536817602E+02  0.56134584731E+02  0.00000000000E+00 0.  1.
          2    1    1    2  501    0  0.11286463238E+01 -0.78323969745E+02 -0.10601741944E+04  0.10630640812E+04  0.00000000000E+00 0. -1.
<scales pt_clust_3="33.25029" pt_clust_4="79.39074" pt_clust_5="42.86417" pt_clust_6="14000.00000"></scales>
<clustering>
<clus scale="   33.250">  1  3  2 -1</clus>
<clus scale="   42.864">  1  5  2 -1</clus>
<clus scale="   79.391">  1  4  2 -1</clus>
<clus scale="   33.250">  1  3  2 -1</clus>
</clustering>
</event>
<event>
 6    0  0.6851428E+002  0.1410162E+03  0.7546771E-02  0.1211968E+00
         21   -1    0    0  501  502  0.00000000000E+00  0.00000000000E+00  0.20029182322E+03  0.20029182322E+03  0.00000000000E+00 0. -1.
          2   -1    0    0  503    0 -0.00000000000E+00 -0.00000000000E+00 -0.43241353132E+03  0.43241353132E+03  0.00000000000E+00 0. -1.
         21    1    1    2  503  505  0.21799671448E+02  0.55716110926E+02 -0.73372065250E+02  0.94672966843E+02  0.00000000000E+00 0. -1.
         21    1    1    2  504  502 -0.10211176554E+03 -0.62514463049E+02  0.12124105444E+03  0.17039443663E+03  0.00000000000E+00 0. -1.
         21    1    1    2  505  504 -0.37275412750E+02  0.78907658412E+02 -0.53237251766E+02  0.10222563244E+03  0.00000000000E+00 0. -1.
          2    1    1    2  501    0  0.11758750685E+03 -0.72109306289E+02 -0.22675344553E+03  0.26541231863E+03  0.00000000000E+00 0. -1.
<scales pt_clust_3="54.77327" pt_clust_4="119.72832" pt_clust_5="54.77327" pt_clust_6="124.53708"></scales>
<clustering>
<clus scale="   54.773">  3  5 -1 -1</clus>
<clus scale="  119.728">  1  4  2 -1</clus>
<clus scale="  124.537">  2  6  1 -1</clus>
<clus scale="  119.728">  1  3  2 -1</clus>
</clustering>
</event>
<event>
 6    0  0.6851428E+002  0.1837551E+03  0.7546771E-02  0.1164218E+00
         21   -1    0    0  505  502  0.00000000000E+00  0.00000000000E+00  0.41384118203E+03  0.41384118203E+03  0.00000000000E+00 0.  1.
          1   -1    0    0  504    0 -0.00000000000E+00 -0.00000000000E+00 -0.22271236129E+03  0.22271236129E+03  0.00000000000E+00 0.  1.
         21    1    1    2  503  502 -0.38147374514E+02 -0.30816727176E+02  0.90477360910E+02  0.10291280627E+03  0.00000000000E+00 0.  1.
         21    1    1    2  504  503  0.30099508055E+02  0.16707583771E+03 -0.14205583352E+02  0.17035878179E+03  0.00000000000E+00 0.  1.
         21    1    1    2  505  501  0.35225233527E+02 -0.17443679140E+03  0.19900282900E+03  0.26696654701E+03  0.00000000000E+00 0.  1.
          1    1    1    2  501    0 -0.27177367068E+02  0.38177680863E+02 -0.84145785825E+02  0.96315408263E+02  0.00000000000E+00 0.  1.
<scales pt_clust_3="48.95519" pt_clust_4="183.75511" pt_clust_5="14000.00000" pt_clust_6="46.86304"></scales>
<clustering>
<clus scale="   46.863">  2  6  1 -1</clus>
<clus scale="   48.955">  1  3  2 -1</clus>
<clus scale="  183.755">  2  4  1 -1</clus>
<clus scale="   48.955">  1  3  2 -1</clus>
</clustering>
</event>
<event>
 6    0  0.6851428E+002  0.1665855E+03  0.7546771E-02  0.1181456E+00
          3   -1    0    0  503    0 -0.00000000000E+00  0.00000000000E+00  0.30440718477E+04  0.30440718477E+04  0.00000000000E+00 0.  1.
         21   -1    0    0  505  502  0.00000000000E+00 -0.00000000000E+00 -0.19973213061E+03  0.19973213061E+03  0.00000000000E+00 0. -1.
         21    1    1    2  503  504 -0.48720066874E+02  0.10946913703E+03  0.16364346342E+03  0.20282090622E+03  0.00000000000E+00 0. -1.
         21    1    1    2  504  502  0.84124258535E+01 -0.22155417068E+03 -0.66537103157E+02  0.23148262473E+03  0.00000000000E+00 0. -1.
         21    1    1    2  505  501 -0.30636644896E+02  0.40176729349E+02 -0.90819668569E+01  0.51334741781E+02  0.00000000000E+00 0. -1.
          3    1    1    2  501    0  0.70944285917E+02  0.71908304306E+02  0.27563153237E+04  0.27581657056E+04  0.00000000000E+00 0.  1.
<scales pt_clust_3="14000.00000" pt_clust_4="166.58551" pt_clust_5="50.52498" pt_clust_6="101.05336"></scales>
<clustering>
<clus scale="   50.525">  2  5  1 -1</clus>
<clus scale="  101.053">  1  6  2 -1</clus>
<clus scale="  166.586">  2  4  1 -1</clus>
<clus scale="   50.525">  2  3  1 -1</clus>
</clustering>
</event>
<event>
 6    0  0.6851428E+002  0.9470721E+02  0.7546771E-02  0.1291837E+00
         21   -1    0    0  504  502  0.00000000000E+00  0.00000000000E+00  0.15223418756E+03  0.15223418756E+03  0.00000000000E+00 0.  1.
          2   -1    0    0  505    0 -0.00000000000E+00 -0.00000000000E+00 -0.88691817384E+03  0.88691817384E+03  0.00000000000E+00 0. -1.
         21    1    1    2  503  502  0.25646424549E+02  0.11077792679E+03 -0.20191447251E+02  0.11548672087E+03  0.00000000000E+00 0.  1.
         21    1    1    2  504  501  0.33111445526E+02 -0.20956125951E+02  0.87238596220E+02  0.95635243034E+02  0.00000000000E+00 0.  1.
         21    1    1    2  505  503 -0.46836763727E+02 -0.57654915728E+02 -0.95600843610E+02  0.12106730790E+03  0.00000000000E+00 0. -1.
          2    1    1    2  501    0 -0.11921106348E+02 -0.32166885108E+02 -0.70613029164E+03  0.70696308959E+03  0.00000000000E+00 0. -1.
<scales pt_clust_3="94.70721" pt_clust_4="39.35949" pt_clust_5="14000.00000" pt_clust_6="34.30483"></scales>
<clustering>
<clus scale="   34.305">  2  6  1 -1</clus>
<clus scale="   39.359">  1  4  2 -1</clus>
<clus scale="   94.707">  1  3  2 -1</clus>
<clus scale="   39.359">  1  3  2 -1</clus>
</clustering>
</event>
<event>
 6    0  0.6851428E+002  0.2408024E+03  0.7546771E-02  0.1119259E+00
          1   -1    0    0  505    0 -0.00000000000E+00  0.00000000000E+00  0.77052053200E+03  0.77052053200E+03  0.00000000000E+00 0.  1.
         21   -1    0    0  504  502  0.00000000000E+00 -0.00000000000E+00 -0.29680078610E+03  0.29680078610E+03  0.00000000000E+00 0.  1.
         21    1    1    2  503  501  0.12890488337E+03 -0.20587659294E+02 -0.67118294920E+02  0.14678278573E+03  0.00000000000E+00 0.  1.
         21    1    1    2  504  503  0.11680659553E+03  0.18304214365E+01 -0.11117815080E+03  0.16126906838E+03  0.00000000000E+00 0. -1.
         21    1    1    2  505  502 -0.19894255694E+03  0.49722750771E+02  0.14984752516E+03  0.25397790003E+03  0.00000000000E+00 0.  1.
          1    1    1    2  501    0 -0.46768921955E+02 -0.30965512914E+02  0.50216866645E+03  0.50529156397E+03  0.00000000000E+00 0.  1.
<scales pt_clust_3="46.15428" pt_clust_4="46.15428" pt_clust_5="235.80809" pt_clust_6="56.09095"></scales>
<clustering>
<clus scale="   46.154">  3  4 -1 -1</clus>
<clus scale="   56.091">  1  6  2 -1</clus>
<clus scale="  235.808">  1  5  2 -1</clus>
<clus scale="  240.802">  2  3  1 -1</clus>
</clustering>
</event>
<event>
 6    0  0.6851428E+002  0.1029118E+03  0.7546771E-02  0.1274289E+00
         -2   -1    0    0    0  501 -0.00000000000E+00  0.00000000000E+00  0.13907123057E+03  0.13907123057E+03  0.00000000000E+00 0.  1.
         21   -1    0    0  505  502  0.00000000000E+00 -0.00000000000E+00 -0.69645023788E+03  0.69645023788E+03  0.00000000000E+00 0. -1.
         21    1    1    2  503  502 -0.24022986598E+02 -0.83335742906E+02 -0.54440590530E+03  0.55127102196E+03  0.00000000000E+00 0. -1.
         21    1    1    2  504  501 -0.57246281794E+02  0.68211303179E+02 -0.59605711887E+02  0.10715763879E+03  0.00000000000E+00 0. -1.
         21    1    1    2  505  504  0.73591086452E+01  0.34842496226E+02 -0.45219963677E+02  0.57558675612E+02  0.00000000000E+00 0. -1.
         -2    1    1    2    0  503  0.73910159747E+02 -0.19718056498E+02  0.91852573551E+02  0.11953413209E+03  0.00000000000E+00 0.  1.
<scales pt_clust_3="86.92882" pt_clust_4="34.83373" pt_clust_5="34.83373" pt_clust_6="76.49519"></scales>
<clustering>
<clus scale="   34.834">  4  5 -1 -1</clus>
<clus scale="   76.495">  1  6  2 -1</clus>
<clus scale="   86.929">  2  3  1 -1</clus>
<clus scale="   86.929">  2  3  1 -1</clus>
</clustering>
</event>
<event>
 6    0  0.6851428E+002  0.2101154E+03  0.7546771E-02  0.1141475E+00
         21   -1    0    0  504  502  0.00000000000E+00  0.00000000000E+00  0.63549754406E+02  0.63549754406E+02  0.00000000000E+00 0. -1.
          2   -1    0    0  503    0 -0.00000000000E+00 -0.00000000000E+00 -0.21034877585E+04  0.21034877585E+04  0.00000000000E+00 0. -1.
         21    1    1    2  503  505  0.21498495358E+02  0.26085591919E+03 -0.38994107481E+03  0.46964032802E+03  0.00000000000E+00 0. -1.
         21    1    1    2  504  501  0.44753340883E+01 -0.15459447584E+03 -0.56088763391E+03  0.58181991926E+03  0.00000000000E+00 0. -1.
         21    1    1    2  505  502 -0.38922714002E+02 -0.23717951783E+02 -0.33253829229E+02  0.56421060433E+02  0.00000000000E+00 0. -1.
          2    1    1    2  501    0  0.12948884555E+02 -0.82543491569E+02 -0.10558554661E+04  0.10591562052E+04  0.00000000000E+00 0. -1.
<scales pt_clust_3="14000.00000" pt_clust_4="210.11543" pt_clust_5="45.57981" pt_clust_6="84.11620"></scales>
<clustering>
<clus scale="   45.580">  1  5  2 -1</clus>
<clus scale="   84.116">  2  6  1 -1</clus>
<clus scale="  210.115">  2  4  1 -1</clus>
<clus scale="   45.580">  1  3  2 -1</clus>
</clustering>
</event>
<event>
 6    0  0.6851428E+002  0.3005624E+03  0.7546771E-02  0.1084960E+00
          2   -1    0    0  505    0 -0.00000000000E+00  0.00000000000E+00  0.35770387813E+04  0.35770387813E+04  0.00000000000E+00 0. -1.
         21   -1    0    0  504  502  0.00000000000E+00 -0.00000000000E+00 -0.14869301903E+03  0.14869301903E+03  0.00000000000E+00 0. -1.
         21    1    1    2  503  501  0.24487965855E+03 -0.88403580276E+02  0.10597201435E+04  0.10912323413E+04  0.00000000000E+00 0. -1.
         21    1    1    2  504  503  0.64425694119E+02 -0.20023753269E+02  0.16436602897E+03  0.17767333012E+03  0.00000000000E+00 0. -1.
         21    1    1    2  505  502 -0.58070809360E+02 -0.17305716679E+02 -0.10999518280E+03  0.12558123653E+03  0.00000000000E+00 0. -1.
          2    1    1    2  501    0 -0.25123454331E+03  0.12573305022E+03  0.23142547727E+04  0.23312448924E+04  0.00000000000E+00 0. -1.
<scales pt_clust_3="33.41335" pt_clust_4="33.41335" pt_clust_5="60.59461" pt_clust_6="293.30772"></scales>
<clustering>
<clus scale="   33.413">  3  4 -1 -1</clus>
<clus scale="   60.595">  2  5  1 -1</clus>
<clus scale="  293.308">  1  6  2 -1</clus>
<clus scale="   60.595">  2  3  1 -1</clus>
</clustering>
</event>
<event>
 6    0  0.7834158E+002  0.8851597E+02  0.7546771E-02  0.1306486E+00
         21   -1    0    0  503  502  0.00000000000E+00  0.00000000000E+00  0.34123955780E+03  0.34123955780E+03  0.00000000000E+00 0.  1.
          2   -1    0    0  505    0 -0.00000000000E+00 -0.00000000000E+00 -0.19043407318E+04  0.19043407318E+04  0.00000000000E+00 0.  1.
         21    1    1    2  503  504  0.19368625039E+02 -0.29925173583E+02  0.17640127008E+02  0.39772273392E+02  0.00000000000E+00 0.  1.
         21    1    1    2  504  501 -0.40259243102E+02  0.13884637168E+02  0.17881872580E+02  0.46188214637E+02  0.00000000000E+00 0.  1.
         21    1    1    2  505  502  0.77653922578E+02 -0.51873196640E+02  0.27164983000E+03  0.28725352976E+03  0.00000000000E+00 0.  1.
          2    1    1    2  501    0 -0.56763304515E+02  0.67913733055E+02 -0.18702730036E+04  0.18723662719E+04  0.00000000000E+00 0.  1.
<scales pt_clust_3="35.64631" pt_clust_4="39.77320" pt_clust_5="88.51597" pt_clust_6="14000.00000"></scales>
<clustering>
<clus scale="   35.646">  1  3  2 -1</clus>
<clus scale="   39.773">  1  4  2 -1</clus>
<clus scale="   88.516">  1  5  2 -1</clus>
<clus scale="   35.646">  1  3  2 -1</clus>
</clustering>
</event>
<event>
 6    0  0.6851428E+002  0.1443965E+03  0.7546771E-02  0.1207533E+00
         21   -1    0    0  505  502  0.00000000000E+00  0.00000000000E+00  0.71856391715E+02  0.71856391715E+02  0.00000000000E+00 0. -1.
          1   -1    0    0  503    0 -0.00000000000E+00 -0.00000000000E+00 -0.26132275608E+04  0.26132275608E+04  0.00000000000E+00 0. -1.
         21    1    1    2  503  502  0.89556245790E+02 -0.48023694606E+02 -0.71480941035E+03  0.72199659939E+03  0.00000000000E+00 0. -1.
         21    1    1    2  504  501 -0.10287464870E+02 -0.57422118539E+02 -0.49764419061E+03  0.50105176586E+03  0.00000000000E+00 0.  1.
         21    1    1    2  505  504 -0.11950146813E+03  0.89922222165E+02 -0.18256048645E+02  0.15066482747E+03  0.00000000000E+00 0. -1.
          1    1    1    2  501    0  0.40232687205E+02  0.15523590979E+02 -0.13106615195E+04  0.13113707598E+04  0.00000000000E+00 0. -1.
<scales pt_clust_3="144.39651" pt_clust_4="51.72546" pt_clust_5="14000.00000" pt_clust_6="43.12367"></scales>
<clustering>
<clus scale="   43.124">  2  6  1 -1</clus>
<clus scale="   51.725">  2  4  1 -1</clus>
<clus scale="  144.397">  2  3  1 -1</clus>
<clus scale="  144.397">  1  3  2 -1</clus>
</clustering>
</event>
<event>
 6    0  0.1344976E+003  0.1242727E+03  0.7546771E-02  0.1236210E+00
          1   -1    0    0  504    0 -0.00000000000E+00  0.00000000000E+00  0.21315137765E+04  0.21315137765E+04  0.00000000000E+00 0.  1.
         21   -1    0    0  503  502  0.00000000000E+00 -0.00000000000E+00 -0.27643907713E+03  0.27643907713E+03  0.00000000000E+00 0. -1.
         21    1    1    2  503  501 -0.21168810513E+02 -0.12328079899E+03 -0.21875382895E+03  0.25199109432E+03  0.00000000000E+00 0. -1.
         21    1    1    2  504  505  0.31702009834E+02  0.57606264501E+02  0.30918127955E+02  0.72659684650E+02  0.00000000000E+00 0. -1.
         21    1    1    2  505  502  0.34448483706E+02  0.14703727514E+02 -0.17650464006E+01  0.37496840150E+02  0.00000000000E+00 0. -1.
          1    1    1    2  501    0 -0.44981683026E+02  0.50970806972E+02  0.20446754467E+04  0.20458052345E+04  0.00000000000E+00 0.  1.
<scales pt_clust_3="117.31905" pt_clust_4="30.93456" pt_clust_5="30.93456" pt_clust_6="67.98070"></scales>
<clustering>
<clus scale="   30.935">  4  5 -1 -1</clus>
<clus scale="   67.981">  1  6  2 -1</clus>
<clus scale="  117.319">  2  3  1 -1</clus>
<clus scale="  117.319">  2  3  1 -1</clus>
</clustering>
</event>
<event>
 6    0  0.6851428E+002  0.9535233E+02  0.7546771E-02  0.1290385E+00
         -4   -1    0    0    0  501 -0.00000000000E+00  0.00000000000E+00  0.18640058226E+04  0.18640058226E+04  0.00000000000E+00 0. -1.
         21   -1    0    0  504  502  0.00000000000E+00 -0.00000000000E+00 -0.55055204475E+02  0.55055204475E+02  0.00000000000E+00 0. -1.
         21    1    1    2  503  502  0.76565078391E+02  0.87793135033E+02  0.23798353693E+03  0.26496416671E+03  0.00000000000E+00 0. -1.
         21    1    1    2  504  505  0.26250116619E+02  0.21641042427E+02  0.23860377372E+01  0.34104200854E+02  0.00000000000E+00 0. -1.
         21    1    1    2  505  501 -0.67094138967E+02 -0.83608223437E+02  0.87830745039E+02  0.13858642893E+03  0.00000000000E+00 0. -1.
         -4    1    1    2    0  503 -0.35721056042E+02 -0.25825954023E+02  0.14807502984E+04  0.14814062306E+04  0.00000000000E+00 0. -1.
<scales pt_clust_3="14000.00000" pt_clust_4="34.02063" pt_clust_5="95.35233" pt_clust_6="43.79509"></scales>
<clustering>
<clus scale="   34.021">  2  4  1 -1</clus>
<clus scale="   43.795">  1  6  2 -1</clus>
<clus scale="   95.352">  2  5  1 -1</clus>
<clus scale="   34.021">  2  3  1 -1</clus>
</clustering>
</event>
<event>
 6    0  0.6851428E+002  0.1283374E+03  0.7546771E-02  0.1229944E+00
          1   -1    0    0  502    0 -0.00000000000E+00  0.00000000000E+00  0.14335403498E+04  0.14335403498E+04  0.00000000000E+00 0.  1.
         21   -1    0    0  505  502  0.00000000000E+00 -0.00000000000E+00 -0.17653122748E+02  0.17653122748E+02  0.00000000000E+00 0.  1.
         21    1    1    2  503  504 -0.58805305233E+02 -0.97124818176E+01  0.13504930272E+03  0.14761676867E+03  0.00000000000E+00 0.  1.
         21    1    1    2  504  501  0.92928587982E+02 -0.66827558717E+02  0.64580516444E+03  0.65587038009E+03  0.00000000000E+00 0.  1.
         21    1    1    2  505  503 -0.49194829076E+02  0.48130235179E+02  0.20046422665E+03  0.21194942065E+03  0.00000000000E+00 0.  1.
          1    1    1    2  501    0  0.15071546327E+02  0.28409805355E+02  0.43456853323E+03  0.43575690312E+03  0.00000000000E+00 0.  1.
<scales pt_clust_3="53.58382" pt_clust_4="113.54256" pt_clust_5="53.58382" pt_clust_6="32.16005"></scales>
<clustering>
<clus scale="   32.160">  1  6  2 -1</clus>
<clus scale="   53.584">  3  5 -1 -1</clus>
<clus scale="  113.543">  1  4  2 -1</clus>
<clus scale="  128.337">  2  3  1 -1</clus>
</clustering>
</event>
<event>
 6    0  0.6851428E+002  0.1544266E+03  0.7546771E-02  0.1195137E+00
         21   -1    0    0  501  502  0.00000000000E+00  0.00000000000E+00  0.21427973416E+03  0.21427973416E+03  0.00000000000E+00 0. -1.
          3   -1    0    0  504    0 -0.00000000000E+00 -0.00000000000E+00 -0.25101529240E+03  0.25101529240E+03  0.00000000000E+00 0. -1.
         21    1    1    2  503  502 -0.31366679066E+02  0.53925579726E+02  0.83426403413E+02  0.10417198035E+03  0.00000000000E+00 0. -1.
         21    1    1    2  504  505  0.27454557499E+02  0.51658538743E+02 -0.28904752272E+01  0.58572281837E+02  0.00000000000E+00 0. -1.
         21    1    1    2  505  503  0.58082181557E+02  0.42267952553E+02  0.38122043600E+02  0.81322874000E+02  0.00000000000E+00 0. -1.
          3    1    1    2  501    0 -0.54170059990E+02 -0.14785207102E+03 -0.15539353002E+03  0.22122789037E+03  0.00000000000E+00 0. -1.
<scales pt_clust_3="62.38459" pt_clust_4="42.23817" pt_clust_5="42.23817" pt_clust_6="147.16284"></scales>
<clustering>
<clus scale="   42.238">  4  5 -1 -1</clus>
<clus scale="   62.385">  1  3  2 -1</clus>
<clus scale="  147.163">  2  6  1 -1</clus>
<clus scale="   62.385">  1  3  2 -1</clus>
</clustering>
</event>
<event>
 6    0  0.6851428E+002  0.1037538E+03  0.7546771E-02  0.1272595E+00
         21   -1    0    0  503  502  0.00000000000E+00  0.00000000000E+00  0.19553674294E+03  0.19553674294E+03  0.00000000000E+00 0. -1.
         -2   -1    0    0    0  501 -0.00000000000E+00 -0.00000000000E+00 -0.53429169055E+03  0.53429169055E+03  0.00000000000E+00 0. -1.
         21    1    1    2  503  505 -0.65060993922E+02 -0.18519467487E+02  0.79491803008E+02  0.10437839983E+03  0.00000000000E+00 0. -1.
         21    1    1    2  504  502  0.65208588253E+02  0.53052809942E+02 -0.14238989488E+01  0.84076085262E+02  0.00000000000E+00 0.  1.
         21    1    1    2  505  501 -0.71088135293E+02  0.44665880096E+02  0.24472913646E+02  0.87449913245E+02  0.00000000000E+00 0. -1.
         -2    1    1    2    0  504  0.70940540962E+02 -0.79199222552E+02 -0.44129576531E+03  0.45392403515E+03  0.00000000000E+00 0. -1.
<scales pt_clust_3="67.64543" pt_clust_4="60.21945" pt_clust_5="14000.00000" pt_clust_6="103.75381"></scales>
<clustering>
<clus scale="   67.645">  1  3  2 -1</clus>
<clus scale="   60.219">  1  4  2 -1</clus>
<clus scale="  103.754">  2  6  1 -1</clus>
<clus scale="   67.645">  1  3  2 -1</clus>
</clustering>
</event>
<event>
 6    0  0.6851428E+002  0.7959476E+02  0.7546771E-02  0.1330205E+00
          1   -1    0    0  505    0 -0.00000000000E+00  0.00000000000E+00  0.35439381628E+03  0.35439381628E+03  0.00000000000E+00 0. -1.
         21   -1    0    0  503  502  0.00000000000E+00 -0.00000000000E+00 -0.85273897081E+02  0.85273897081E+02  0.00000000000E+00 0. -1.
         21    1    1    2  503  501 -0.55789607182E+02 -0.39750428364E+02  0.53903906046E+02  0.87167699933E+02  0.00000000000E+00 0. -1.
         21    1    1    2  504  502  0.82704701034E+02  0.31869220084E+02  0.12658012212E+02  0.89531782262E+02  0.00000000000E+00 0. -1.
         21    1    1    2  505  504 -0.28934768059E+02  0.62483421364E+02  0.18971879049E+02  0.71423602140E+02  0.00000000000E+00 0. -1.
          1    1    1    2  501    0  0.20196742073E+01 -0.54602213084E+02  0.18358612190E+03  0.19154462903E+03  0.00000000000E+00 0. -1.
<scales pt_clust_3="79.59476" pt_clust_4="14000.00000" pt_clust_5="55.49982" pt_clust_6="54.63955"></scales>
<clustering>
<clus scale="   54.640">  1  6  2 -1</clus>
<clus scale="   55.500">  1  5  2 -1</clus>
<clus scale="   79.595">  1  3  2 -1</clus>
<clus scale="   79.595">  2  3  1 -1</clus>
</clustering>
</event>
<event>
 6    0  0.6851428E+002  0.1926263E+03  0.7546771E-02  0.1156114E+00
         21   -1    0    0  504  502  0.00000000000E+00  0.00000000000E+00  0.39182707774E+03  0.39182707774E+03  0.00000000000E+00 0.  1.
          2   -1    0    0  503    0 -0.00000000000E+00 -0.00000000000E+00 -0.34590096270E+03  0.34590096270E+03  0.00000000000E+00 0.  1.
         21    1    1    2  503  502  0.53287846019E+02 -0.16443404333E+03  0.10329304898E+02  0.17316132270E+03  0.00000000000E+00 0.  1.
         21    1    1    2  504  505  0.31988847333E+02  0.12217918453E+01  0.17762601468E+03  0.18048761791E+03  0.00000000000E+00 0.  1.
         21    1    1    2  505  501  0.49970426469E+02  0.75897493521E+01  0.71300467000E+02  0.87397965715E+02  0.00000000000E+00 0.  1.
          2    1    1    2  501    0 -0.13524711982E+03  0.15562250213E+03 -0.21332967153E+03  0.29668113412E+03  0.00000000000E+00 0.  1.
<scales pt_clust_3="192.62627" pt_clust_4="32.01217" pt_clust_5="62.42080" pt_clust_6="14000.00000"></scales>
<clustering>
<clus scale="   32.012">  1  4  2 -1</clus>
<clus scale="   62.421">  1  5  2 -1</clus>
<clus scale="  192.626">  1  3  2 -1</clus>
<clus scale="   32.012">  1  3  2 -1</clus>
</clustering>
</event>
<event>
 6    0  0.6851428E+002  0.1539722E+03  0.7546771E-02  0.1195675E+00
         21   -1    0    0  505  502  0.00000000000E+00  0.00000000000E+00  0.17505344574E+03  0.17505344574E+03  0.00000000000E+00 0. -1.
          2   -1    0    0  503    0 -0.00000000000E+00 -0.00000000000E+00 -0.13387960705E+04  0.13387960705E+04  0.00000000000E+00 0.  1.
         21    1    1    2  503  502 -0.37615148647E+02 -0.34710044236E+02  0.34061761000E+01  0.51296087709E+02  0.00000000000E+00 0. -1.
         21    1    1    2  504  501  0.40438457005E+02 -0.66142695088E+02  0.57148671459E+02  0.96312489159E+02  0.00000000000E+00 0. -1.
         21    1    1    2  505  504 -0.44425547191E+01 -0.47791539326E+02  0.58040355228E+02  0.75315671401E+02  0.00000000000E+00 0. -1.
          2    1    1    2  501    0  0.16192463612E+01  0.14864427865E+03 -0.12823378276E+04  0.12909252680E+04  0.00000000000E+00 0.  1.
<scales pt_clust_3="51.18287" pt_clust_4="34.39688" pt_clust_5="34.39688" pt_clust_6="147.63619"></scales>
<clustering>
<clus scale="   34.397">  4  5 -1 -1</clus>
<clus scale="   51.183">  1  3  2 -1</clus>
<clus scale="  147.636">  2  6  1 -1</clus>
<clus scale="   51.183">  1  3  2 -1</clus>
</clustering>
</event>
<event>
 6    0  0.6851428E+002  0.1017922E+03  0.7546771E-02  0.1276572E+00
          1   -1    0    0  504    0 -0.00000000000E+00  0.00000000000E+00  0.90224545839E+03  0.90224545839E+03  0.00000000000E+00 0. -1.
         21   -1    0    0  503  502  0.00000000000E+00 -0.00000000000E+00 -0.88679558773E+03  0.88679558773E+03  0.00000000000E+00 0. -1.
         21    1    1    2  503  505 -0.30281024207E+02 -0.22399313042E+02 -0.24701853276E+03  0.24987361842E+03  0.00000000000E+00 0. -1.
         21    1    1    2  504  502  0.78398824111E+02 -0.68252788467E+02 -0.54389048555E+03  0.55373430364E+03  0.00000000000E+00 0. -1.
         21    1    1    2  505  501 -0.86515452860E+02  0.64319179432E+02 -0.56230252742E+02  0.12158832900E+03  0.00000000000E+00 0.  1.
          1    1    1    2  501    0  0.38397652957E+02  0.26332922077E+02  0.86258914172E+03  0.86384479505E+03  0.00000000000E+00 0. -1.
<scales pt_clust_3="37.66523" pt_clust_4="14000.00000" pt_clust_5="101.79218" pt_clust_6="46.52265"></scales>
<clustering>
<clus scale="   37.665">  2  3  1 -1</clus>
<clus scale="   46.523">  1  6  2 -1</clus>
<clus scale="  101.792">  1  5  2 -1</clus>
<clus scale="   37.665">  2  3  1 -1</clus>
</clustering>
</event>
<event>
 6    0  0.6851428E+002  0.1178013E+03  0.7546771E-02  0.1246769E+00
          2   -1    0    0  505    0 -0.00000000000E+00  0.00000000000E+00  0.17921338248E+04  0.17921338248E+04  0.00000000000E+00 0.  1.
         21   -1    0    0  501  502  0.00000000000E+00 -0.00000000000E+00 -0.40055346446E+02  0.40055346446E+02  0.00000000000E+00 0.  1.
         21    1    1    2  503  504  0.38780579917E+02  0.11300532149E+03  0.10699616731E+03  0.16038178164E+03  0.00000000000E+00 0.  1.
         21    1    1    2  504  502 -0.22798522571E+02  0.20156017435E+02  0.48516879396E+02  0.57270631711E+02  0.00000000000E+00 0.  1.
         21    1    1    2  505  503 -0.30651866586E+02 -0.98312895693E+02  0.29564486715E+03  0.31306684567E+03  0.00000000000E+00 0. -1.
          2    1    1    2  501    0  0.14669809241E+02 -0.34848443227E+02  0.13009205645E+04  0.13014699123E+04  0.00000000000E+00 0.  1.
<scales pt_clust_3="117.80131" pt_clust_4="30.43087" pt_clust_5="14000.00000" pt_clust_6="37.59930"></scales>
<clustering>
<clus scale="   30.431">  2  4  1 -1</clus>
<clus scale="   37.599">  1  6  2 -1</clus>
<clus scale="  117.801">  2  3  1 -1</clus>
<clus scale="   30.431">  2  3  1 -1</clus>
</clustering>
</event>
<event>
 6    0  0.6851428E+002  0.1139934E+03  0.7546771E-02  0.1253348E+00
         -4   -1    0    0    0  501 -0.00000000000E+00  0.00000000000E+00  0.26435467909E+03  0.26435467909E+03  0.00000000000E+00 0.  1.
         21   -1    0    0  503  502  0.00000000000E+00 -0.00000000000E+00 -0.97694516502E+03  0.97694516502E+03  0.00000000000E+00 0. -1.
         21    1    1    2  503  505 -0.56913480822E+02  0.63489213445E+02 -0.62165661793E+03  0.62747667299E+03  0.00000000000E+00 0. -1.
         21    1    1    2  504  502  0.52343999388E+02 -0.11696593035E+02 -0.10590599367E+03  0.11871303238E+03  0.00000000000E+00 0. -1.
         21    1    1    2  505  501 -0.13406943390E+02  0.50469706729E+02 -0.22640464478E+03  0.23234887692E+03  0.00000000000E+00 0. -1.
         -4    1    1    2    0  504  0.17976424824E+02 -0.10226232714E+03  0.24137677046E+03  0.26276126183E+03  0.00000000000E+00 0.  1.
<scales pt_clust_3="36.37553" pt_clust_4="53.63492" pt_clust_5="36.37553" pt_clust_6="104.08665"></scales>
<clustering>
<clus scale="   36.376">  3  5 -1 -1</clus>
<clus scale="   53.635">  2  4  1 -1</clus>
<clus scale="  104.087">  1  6  2 -1</clus>
<clus scale="   53.635">  2  3  1 -1</clus>
</clustering>
</event>
<event>
 6    0  0.6851428E+002  0.7601454E+02  0.7546771E-02  0.1340758E+00
         21   -1    0    0  504  502  0.00000000000E+00  0.00000000000E+00  0.97727059807E+02  0.97727059807E+02  0.00000000000E+00 0.  1.
          2   -1    0    0  505    0 -0.00000000000E+00 -0.00000000000E+00 -0.10921114370E+04  0.10921114370E+04  0.00000000000E+00 0. -1.
         21    1    1    2  503  502  0.18844204329E+02  0.72399339103E+02  0.48406496638E+02  0.89106437793E+02  0.00000000000E+00 0.  1.
         21    1    1    2  504  501 -0.35002831469E+02 -0.74479754296E+02 -0.67982986680E+02  0.10674323627E+03  0.00000000000E+00 0.  1.
         21    1    1    2  505  503  0.53896368838E+02 -0.25618840337E+02 -0.90262832374E+02  0.10820592619E+03  0.00000000000E+00 0.  1.
          2    1    1    2  501    0 -0.37737741698E+02  0.27699255530E+02 -0.88454505475E+03  0.88578289653E+03  0.00000000000E+00 0. -1.
<scales pt_clust_3="76.01454" pt_clust_4="14000.00000" pt_clust_5="37.86651" pt_clust_6="46.81224"></scales>
<clustering>
<clus scale="   46.812">  2  6  1 -1</clus>
<clus scale="   37.867">  2  5  1 -1</clus>
<clus scale="   76.015">  1  3  2 -1</clus>
<clus scale="   76.015">  1  3  2 -1</clus>
</clustering>
</event>
<event>
 6    0  0.6851428E+002  0.1839856E+03  0.7546771E-02  0.1164001E+00
         21   -1    0    0  503  502  0.00000000000E+00  0.00000000000E+00  0.17292506669E+04  0.17292506669E+04  0.00000000000E+00 0.  1.
          1   -1    0    0  504    0 -0.00000000000E+00 -0.00000000000E+00 -0.13147976028E+04  0.13147976028E+04  0.00000000000E+00 0. -1.
         21    1    1    2  503  505 -0.21977604568E+03 -0.10178557276E+02  0.13525763086E+04  0.13703531602E+04  0.00000000000E+00 0.  1.
         21    1    1    2  504  502  0.23050321051E+02  0.69665019084E+02  0.24978581451E+03  0.26034109417E+03  0.00000000000E+00 0.  1.
         21    1    1    2  505  501  0.82590016990E+02 -0.10954282524E+03  0.66718200520E+02  0.15255182644E+03  0.00000000000E+00 0. -1.
          1    1    1    2  501    0  0.11413570764E+03  0.50056363436E+02 -0.12546272594E+04  0.12608021888E+04  0.00000000000E+00 0. -1.
<scales pt_clust_3="14000.00000" pt_clust_4="73.37937" pt_clust_5="183.98556" pt_clust_6="124.73271"></scales>
<clustering>
<clus scale="   73.379">  1  4  2 -1</clus>
<clus scale="  124.733">  2  6  1 -1</clus>
<clus scale="  183.986">  2  5  1 -1</clus>
<clus scale="   73.379">  1  3  2 -1</clus>
</clustering>
</event>
<event>
 6    0  0.6851428E+002  0.2635108E+03  0.7546771E-02  0.1105052E+00
         21   -1    0    0  501  502  0.00000000000E+00  0.00000000000E+00  0.14807076548E+03  0.14807076548E+03  0.00000000000E+00 0.  1.
          2   -1    0    0  504    0 -0.00000000000E+00 -0.00000000000E+00 -0.12941641965E+04  0.12941641965E+04  0.00000000000E+00 0. -1.
         21    1    1    2  503  505  0.13922595845E+03  0.74327971739E+02  0.34201620343E+02  0.16148766431E+03  0.00000000000E+00 0.  1.
         21    1    1    2  504  503 -0.12435421432E+03  0.12889917554E+02 -0.29429618462E+03  0.31975047283E+03  0.00000000000E+00 0. -1.
         21    1    1    2  505  502  0.10396054219E+03 -0.15251602086E+02 -0.55253712734E+02  0.11871553593E+03  0.00000000000E+00 0. -1.
          2    1    1    2  501    0 -0.11883228633E+03 -0.71966287207E+02 -0.83074515403E+03  0.84228128895E+03  0.00000000000E+00 0. -1.
<scales pt_clust_3="101.39028" pt_clust_4="125.02048" pt_clust_5="101.39028" pt_clust_6="232.37252"></scales>
<clustering>
<clus scale="  101.390">  3  5 -1 -1</clus>
<clus scale="  125.020">  2  4  1 -1</clus>
<clus scale="  232.373">  2  6  1 -1</clus>
<clus scale="  263.511">  1  3  2 -1</clus>
</clustering>
</event>
<event>
 6    0  0.6851428E+002  0.8057794E+02  0.7546771E-02  0.1327419E+00
         21   -1    0    0  505  502  0.00000000000E+00  0.00000000000E+00  0.23082244303E+03  0.23082244303E+03  0.00000000000E+00 0. -1.
          2   -1    0    0  504    0 -0.00000000000E+00 -0.00000000000E+00 -0.69929089569E+03  0.69929089569E+03  0.00000000000E+00 0.  1.
         21    1    1    2  503  501  0.24870811745E+02  0.50186715176E+02  0.11752526928E+03  0.13019006328E+03  0.00000000000E+00 0. -1.
         21    1    1    2  504  502 -0.18979629239E+02 -0.10513954975E+03  0.32211734912E+02  0.11158918905E+03  0.00000000000E+00 0. -1.
         21    1    1    2  505  503  0.34779674986E+02  0.15402084280E+02  0.23114464771E+02  0.44509869399E+02  0.00000000000E+00 0. -1.
          2    1    1    2  501    0 -0.40670857492E+02  0.39550750290E+02 -0.64131992163E+03  0.64382421698E+03  0.00000000000E+00 0.  1.
<scales pt_clust_3="14000.00000" pt_clust_4="80.57794" pt_clust_5="38.03748" pt_clust_6="56.64099"></scales>
<clustering>
<clus scale="   38.037">  1  5  2 -1</clus>
<clus scale="   56.641">  2  6  1 -1</clus>
<clus scale="   80.578">  2  4  1 -1</clus>
<clus scale="   38.037">  1  3  2 -1</clus>
</clustering>
</event>
<event>
 6    0  0.6851428E+002  0.8986508E+02  0.7546771E-02  0.1303179E+00
          2   -1    0    0  505    0 -0.00000000000E+00  0.00000000000E+00  0.12491983792E+04  0.12491983792E+04  0.00000000000E+00 0. -1.
         21   -1    0    0  503  502  0.00000000000E+00 -0.00000000000E+00 -0.44038983590E+02  0.44038983590E+02  0.00000000000E+00 0. -1.
         21    1    1    2  503  504  0.30297050120E+01  0.36143395191E+02  0.75695123558E+01  0.37051607869E+02  0.00000000000E+00 0. -1.
         21    1    1    2  504  501  0.40436892647E+02  0.18308315558E+02  0.20071895974E+02  0.48715682419E+02  0.00000000000E+00 0. -1.
         21    1    1    2  505  502  0.52310584699E+02 -0.53146377508E+02  0.95237593350E+02  0.12095922412E+03  0.00000000000E+00 0. -1.
          2    1    1    2  501    0 -0.95777182358E+02 -0.13053332415E+01  0.10822803940E+04  0.10865108484E+04  0.00000000000E+00 0. -1.
<scales pt_clust_3="36.27015" pt_clust_4="55.23968" pt_clust_5="14000.00000" pt_clust_6="89.86508"></scales>
<clustering>
<clus scale="   36.270">  2  3  1 -1</clus>
<clus scale="   55.240">  2  4  1 -1</clus>
<clus scale="   89.865">  1  6  2 -1</clus>
<clus scale="   36.270">  2  3  1 -1</clus>
</clustering>
</event>
<event>
 6    0  0.6851428E+002  0.1063154E+03  0.7546771E-02  0.1267549E+00
         21   -1    0    0  503  502  0.00000000000E+00  0.00000000000E+00  0.52637675823E+03  0.52637675823E+03  0.00000000000E+00 0.  1.
          2   -1    0    0  505    0 -0.00000000000E+00 -0.00000000000E+00 -0.19863618999E+04  0.19863618999E+04  0.00000000000E+00 0. -1.
         21    1    1    2  503  504 -0.10603473305E+03  0.36763739108E+02  0.47080830432E+03  0.48399937659E+03  0.00000000000E+00 0.  1.
         21    1    1    2  504  501  0.81261387886E+02  0.36126209078E+02  0.17274499955E+01  0.88946614478E+02  0.00000000000E+00 0.  1.
         21    1    1    2  505  502  0.43785196352E+02 -0.31888150008E+01 -0.16332860925E+03  0.16912583055E+03  0.00000000000E+00 0. -1.
          2    1    1    2  501    0 -0.19011851192E+02 -0.69701133185E+02 -0.17691922868E+04  0.17706668365E+04  0.00000000000E+00 0. -1.
<scales pt_clust_3="14000.00000" pt_clust_4="106.31539" pt_clust_5="43.90116" pt_clust_6="76.52103"></scales>
<clustering>
<clus scale="   43.901">  2  5  1 -1</clus>
<clus scale="   76.521">  2  6  1 -1</clus>
<clus scale="  106.315">  2  4  1 -1</clus>
<clus scale="  106.315">  1  3  2 -1</clus>
</clustering>
</event>
<event>
 6    0  0.6851428E+002  0.3117128E+03  0.7546771E-02  0.1079528E+00
          1   -1    0    0  504    0 -0.00000000000E+00  0.00000000000E+00  0.35472546739E+04  0.35472546739E+04  0.00000000000E+00 0. -1.
         21   -1    0    0  503  502  0.00000000000E+00 -0.00000000000E+00 -0.73947114605E+02  0.73947114605E+02  0.00000000000E+00 0.  1.
         21    1    1    2  503  505 -0.19973479596E+03 -0.14445868260E+03  0.36477617352E+03  0.44025442243E+03  0.00000000000E+00 0.  1.
         21    1    1    2  504  502  0.31109151127E+02 -0.30848835341E+01  0.16345276272E+02  0.35276959148E+02  0.00000000000E+00 0.  1.
         21    1    1    2  505  501 -0.77423887923E+02 -0.19116494042E+02  0.62178187207E+02  0.10112381386E+03  0.00000000000E+00 0. -1.
          1    1    1    2  501    0  0.24604953275E+03  0.16666006017E+03  0.30300079223E+04  0.30445465930E+04  0.00000000000E+00 0. -1.
<scales pt_clust_3="46.88844" pt_clust_4="31.26173" pt_clust_5="46.88844" pt_clust_6="299.89714"></scales>
<clustering>
<clus scale="   31.262">  2  4  1 -1</clus>
<clus scale="   46.888">  3  5 -1 -1</clus>
<clus scale="  299.897">  1  6  2 -1</clus>
<clus scale="   31.262">  2  3  1 -1</clus>
</clustering>
</event>
<event>
 6    0  0.6851428E+002  0.8509953E+02  0.7546771E-02  0.1315172E+00
         21   -1    0    0  501  502  0.00000000000E+00  0.00000000000E+00  0.13844369475E+02  0.13844369475E+02  0.00000000000E+00 0.  1.
          1   -1    0    0  504    0 -0.00000000000E+00 -0.00000000000E+00 -0.16165492584E+04  0.16165492584E+04  0.00000000000E+00 0.  1.
         21    1    1    2  503  505  0.14090935191E+02 -0.35913380347E+02 -0.19303803263E+03  0.19685529555E+03  0.00000000000E+00 0.  1.
         21    1    1    2  504  503  0.13171076777E+02 -0.43147397117E+02 -0.10182318521E+03  0.11136936827E+03  0.00000000000E+00 0.  1.
         21    1    1    2  505  502 -0.83100677615E+02  0.12709184498E+02 -0.33194572284E+03  0.34242547934E+03  0.00000000000E+00 0.  1.
          1    1    1    2  501    0  0.55838665647E+02  0.66351592966E+02 -0.97589794828E+03  0.97974348476E+03  0.00000000000E+00 0.  1.
<scales pt_clust_3="30.18541" pt_clust_4="30.18541" pt_clust_5="84.06691" pt_clust_6="78.59039"></scales>
<clustering>
<clus scale="   30.185">  3  4 -1 -1</clus>
<clus scale="   84.067">  1  5  2 -1</clus>
<clus scale="   78.590">  2  6  1 -1</clus>
<clus scale="   84.067">  1  3  2 -1</clus>
</clustering>
</event>
<event>
 6    0  0.6851428E+002  0.1738261E+03  0.7546771E-02  0.1173916E+00
          1   -1    0    0  502    0 -0.00000000000E+00  0.00000000000E+00  0.29787544748E+03  0.29787544748E+03  0.00000000000E+00 0.  1.
         21   -1    0    0  505  502  0.00000000000E+00 -0.00000000000E+00 -0.47804525766E+03  0.47804525766E+03  0.00000000000E+00 0. -1.
         21    1    1    2  503  504 -0.78375191419E+02  0.33333182152E+02 -0.50301982571E+02  0.98914413069E+02  0.00000000000E+00 0. -1.
         21    1    1    2  504  501 -0.85035078263E+02 -0.72356159736E+01 -0.86971786208E+02  0.12184994982E+03  0.00000000000E+00 0. -1.
         21    1    1    2  505  503 -0.31247045693E+01 -0.42273915436E+02 -0.26986859203E+03  0.27317742342E+03  0.00000000000E+00 0. -1.
          1    1    1    2  501    0  0.16653497425E+03  0.16176349258E+02  0.22697255063E+03  0.28197891883E+03  0.00000000000E+00 0.  1.
<scales pt_clust_3="47.35378" pt_clust_4="47.35378" pt_clust_5="42.38924" pt_clust_6="166.45330"></scales>
<clustering>
<clus scale="   42.389">  2  5  1 -1</clus>
<clus scale="   47.354">  3  4 -1 -1</clus>
<clus scale="  166.453">  1  6  2 -1</clus>
<clus scale="   42.389">  2  3  1 -1</clus>
</clustering>
</event>
<event>
 6    0  0.6851428E+002  0.8431910E+02  0.7546771E-02  0.1317223E+00
          1   -1    0    0  503    0 -0.00000000000E+00  0.00000000000E+00  0.31599416189E+03  0.31599416189E+03  0.00000000000E+00 0. -1.
         21   -1    0    0  501  502  0.00000000000E+00 -0.00000000000E+00 -0.42704191446E+03  0.42704191446E+03  0.00000000000E+00 0. -1.
         21    1    1    2  503  505  0.24636545325E+02 -0.76807702828E+02 -0.10917790372E+03  0.13574312962E+03  0.00000000000E+00 0. -1.
         21    1    1    2  504  502 -0.72230564114E+02  0.87528072594E+01 -0.10075706203E+03  0.12428134042E+03  0.00000000000E+00 0. -1.
         21    1    1    2  505  504  0.97262164569E+02  0.34082720571E+02 -0.17472764391E+03  0.20285785675E+03  0.00000000000E+00 0. -1.
          1    1    1    2  501    0 -0.49668145780E+02  0.33972174998E+02  0.27361485709E+03  0.28015374957E+03  0.00000000000E+00 0. -1.
<scales pt_clust_3="65.73060" pt_clust_4="84.31910" pt_clust_5="14000.00000" pt_clust_6="60.17502"></scales>
<clustering>
<clus scale="   60.175">  1  6  2 -1</clus>
<clus scale="   65.731">  1  3  2 -1</clus>
<clus scale="   84.319">  2  4  1 -1</clus>
<clus scale="   84.319">  2  3  1 -1</clus>
</clustering>
</event>
<event>
 6    0  0.6851428E+002  0.1342364E+03  0.7546771E-02  0.1221302E+00
          2   -1    0    0  502    0 -0.00000000000E+00  0.00000000000E+00  0.12300362643E+04  0.12300362643E+04  0.00000000000E+00 0. -1.
         21   -1    0    0  503  502  0.00000000000E+00 -0.00000000000E+00 -0.28222073628E+02  0.28222073628E+02  0.00000000000E+00 0. -1.
         21    1    1    2  503  504  0.17166024503E+02 -0.32493989063E+02  0.55212627674E+02  0.66324701109E+02  0.00000000000E+00 0. -1.
         21    1    1    2  504  505  0.41662410946E+02  0.51477471621E+02  0.11637864119E+03  0.13390173522E+03  0.00000000000E+00 0. -1.
         21    1    1    2  505  501 -0.11721106271E+02  0.86424347459E+02  0.18011723723E+03  0.20012189114E+03  0.00000000000E+00 0. -1.
          2    1    1    2  501    0 -0.47107329178E+02 -0.10540783002E+03  0.85010568458E+03  0.85791001046E+03  0.00000000000E+00 0. -1.
<scales pt_clust_3="36.74958" pt_clust_4="56.74652" pt_clust_5="56.74652" pt_clust_6="119.46062"></scales>
<clustering>
<clus scale="   36.750">  2  3  1 -1</clus>
<clus scale="   56.747">  4  5 -1 -1</clus>
<clus scale="  119.461">  1  6  2 -1</clus>
<clus scale="   36.750">  2  3  1 -1</clus>
</clustering>
</event>
<event>
 6    0  0.6851428E+002  0.1776284E+03  0.7546771E-02  0.1170118E+00
         21   -1    0    0  504  502  0.00000000000E+00  0.00000000000E+00  0.74704735469E+03  0.74704735469E+03  0.00000000000E+00 0. -1.
          2   -1    0    0  503    0 -0.00000000000E+00 -0.00000000000E+00 -0.64210697209E+03  0.64210697209E+03  0.00000000000E+00 0. -1.
         21    1    1    2  503  502  0.11428224127E+03 -0.12907565186E+03  0.71907976596E+03  0.73945700645E+03  0.00000000000E+00 0. -1.
         21    1    1    2  504  505 -0.30360316111E+02  0.50458155314E+02 -0.14560660600E+03  0.15706386581E+03  0.00000000000E+00 0.  1.
         21    1    1    2  505  501 -0.80260707576E+02  0.33384026143E+02 -0.17273163985E+03  0.19337138824E+03  0.00000000000E+00 0. -1.
          2    1    1    2  501    0 -0.36612175801E+01  0.45233470405E+02 -0.29580113751E+03  0.29926206628E+03  0.00000000000E+00 0. -1.
<scales pt_clust_3="171.32640" pt_clust_4="38.59747" pt_clust_5="38.59747" pt_clust_6="45.38140"></scales>
<clustering>
<clus scale="   38.597">  4  5 -1 -1</clus>
<clus scale="   45.381">  2  6  1 -1</clus>
<clus scale="  171.326">  1  3  2 -1</clus>
<clus scale="  171.326">  1  3  2 -1</clus>
</clustering>
</event>
<event>
 6    0  0.6851428E+002  0.1412805E+03  0.7546771E-02  0.1211616E+00
          1   -1    0    0  503    0 -0.00000000000E+00  0.00000000000E+00  0.27426262509E+04  0.27426262509E+04  0.00000000000E+00 0.  1.
         21   -1    0    0  501  502  0.00000000000E+00 -0.00000000000E+00 -0.56978730934E+02  0.56978730934E+02  0.00000000000E+00 0.  1.
         21    1    1    2  503  505 -0.17225763617E+02 -0.26397687568E+02  0.88772334562E+02  0.94202400313E+02  0.00000000000E+00 0. -1.
         21    1    1    2  504  502  0.13891221023E+03  0.46823375078E+02  0.55089400624E+02  0.15660099829E+03  0.00000000000E+00 0.  1.
         21    1    1    2  505  504 -0.95930913346E+02 -0.35854582575E+02  0.77225242398E+03  0.77901354132E+03  0.00000000000E+00 0.  1.
          1    1    1    2  501    0 -0.25755533262E+02  0.15428895065E+02  0.17695333608E+04  0.17697880419E+04  0.00000000000E+00 0.  1.
<scales pt_clust_3="31.75491" pt_clust_4="14000.00000" pt_clust_5="141.28054" pt_clust_6="30.02330"></scales>
<clustering>
<clus scale="   30.023">  1  6  2 -1</clus>
<clus scale="   31.755">  1  3  2 -1</clus>
<clus scale="  141.281">  1  5  2 -1</clus>
<clus scale="  141.281">  2  3  1 -1</clus>
</clustering>
</event>
<event>
 6    0  0.6851428E+002  0.9529155E+02  0.7546771E-02  0.1290521E+00
         21   -1    0    0  505  502  0.00000000000E+00  0.00000000000E+00  0.41776428888E+03  0.41776428888E+03  0.00000000000E+00 0.  1.
          2   -1    0    0  503    0 -0.00000000000E+00 -0.00000000000E+00 -0.78051868898E+03  0.78051868898E+03  0.00000000000E+00 0.  1.
         21    1    1    2  503  502  0.23440836202E+02  0.10243562288E+03  0.15952086778E+02  0.10628734031E+03  0.00000000000E+00 0.  1.
         21    1    1    2  504  501  0.73055772197E+02 -0.76184887324E+02  0.97388184012E+02  0.14361664699E+03  0.00000000000E+00 0.  1.
         21    1    1    2  505  504 -0.41856266604E+02 -0.21002140156E+02  0.23274884786E+03  0.23741327495E+03  0.00000000000E+00 0.  1.
          2    1    1    2  501    0 -0.54640341795E+02 -0.52485954003E+01 -0.70884351875E+03  0.71096571561E+03  0.00000000000E+00 0.  1.
<scales pt_clust_3="14000.00000" pt_clust_4="95.29155" pt_clust_5="46.82987" pt_clust_6="55.14560"></scales>
<clustering>
<clus scale="   46.830">  1  5  2 -1</clus>
<clus scale="   55.146">  2  6  1 -1</clus>
<clus scale="   95.292">  1  4  2 -1</clus>
<clus scale="   46.830">  1  3  2 -1</clus>
</clustering>
</event>
<event>
 6    0  0.6851428E+002  0.8705083E+02  0.7546771E-02  0.1310155E+00
         -4   -1    0    0    0  501 -0.00000000000E+00  0.00000000000E+00  0.15380187664E+04  0.15380187664E+04  0.00000000000E+00 0.  1.
         21   -1    0    0  501  502  0.00000000000E+00 -0.00000000000E+00 -0.36263019484E+03  0.36263019484E+03  0.00000000000E+00 0.  1.
         21    1    1    2  503  504  0.80250340373E+02  0.45136222726E+02 -0.11957774759E+03  0.15091796928E+03  0.00000000000E+00 0.  1.
         21    1    1    2  504  505 -0.34073943860E+02  0.37803670768E+02 -0.11922938632E+03  0.12963717729E+03  0.00000000000E+00 0.  1.
         21    1    1    2  505  502  0.24072042141E+02 -0.31598342212E+02 -0.97819396541E+02  0.10557723610E+03  0.00000000000E+00 0.  1.
         -4    1    1    2    0  503 -0.70248438654E+02 -0.51341551282E+02  0.15120151020E+04  0.15145165785E+04  0.00000000000E+00 0.  1.
<scales pt_clust_3="14000.00000" pt_clust_4="32.05295" pt_clust_5="39.72302" pt_clust_6="87.05083"></scales>
<clustering>
<clus scale="   39.723">  2  5  1 -1</clus>
<clus scale="   32.053">  2  4  1 -1</clus>
<clus scale="   87.051">  1  6  2 -1</clus>
<clus scale="   39.723">  2  3  1 -1</clus>
</clustering>
</event>
<event>
 6    0  0.6851428E+002  0.1388617E+03  0.7546771E-02  0.1214869E+00
         21   -1    0    0  504  502  0.00000000000E+00  0.00000000000E+00  0.83233293177E+02  0.83233293177E+02  0.00000000000E+00 0.  1.
          1   -1    0    0  503    0 -0.00000000000E+00 -0.00000000000E+00 -0.10616229511E+04  0.10616229511E+04  0.00000000000E+00 0. -1.
         21    1    1    2  503  502  0.22944733944E+02 -0.31829969557E+02  0.37209138559E+02  0.54075204762E+02  0.00000000000E+00 0.  1.
         21    1    1    2  504  505  0.60395985216E+02  0.21768593393E+02 -0.22211968310E+02  0.67933189420E+02  0.00000000000E+00 0. -1.
         21    1    1    2  505  501  0.52423668755E+02  0.64668718554E+01 -0.61298254094E+02  0.80916855057E+02  0.00000000000E+00 0.  1.
          1    1    1    2  501    0 -0.13576438792E+03  0.35945043094E+01 -0.93208857406E+03  0.94193099502E+03  0.00000000000E+00 0. -1.
<scales pt_clust_3="39.23784" pt_clust_4="36.92170" pt_clust_5="36.92170" pt_clust_6="132.76183"></scales>
<clustering>
<clus scale="   36.922">  4  5 -1 -1</clus>
<clus scale="   39.238">  1  3  2 -1</clus>
<clus scale="  132.762">  2  6  1 -1</clus>
<clus scale="   39.238">  1  3  2 -1</clus>
</clustering>
</event>
<event>
 6    0  0.6851428E+002  0.1201729E+03  0.7546771E-02  0.1242812E+00
         21   -1    0    0  504  502  0.00000000000E+00  0.00000000000E+00  0.80553426701E+02  0.80553426701E+02  0.00000000000E+00 0.  1.
          2   -1    0    0  502    0 -0.00000000000E+00 -0.00000000000E+00 -0.14338300534E+04  0.14338300534E+04  0.00000000000E+00 0.  1.
         21    1    1    2  503  501  0.84525858301E+02 -0.27171265904E+02 -0.69373324371E+02  0.11267456034E+03  0.00000000000E+00 0.  1.
         21    1    1    2  504  505  0.43616083424E+02  0.14888818211E+02  0.32797700549E+02  0.56566145372E+02  0.00000000000E+00 0.  1.
         21    1    1    2  505  503 -0.90579077129E+01  0.58053826994E+02 -0.67693114683E+02  0.89636210854E+02  0.00000000000E+00 0. -1.
          2    1    1    2  501    0 -0.11908403401E+03 -0.45771379300E+02 -0.12490078882E+04  0.12555065635E+04  0.00000000000E+00 0.  1.
<scales pt_clust_3="120.17294" pt_clust_4="46.08730" pt_clust_5="62.75396" pt_clust_6="14000.00000"></scales>
<clustering>
<clus scale="   46.087">  1  4  2 -1</clus>
<clus scale="   62.754">  1  5  2 -1</clus>
<clus scale="  120.173">  1  3  2 -1</clus>
<clus scale="   46.087">  1  3  2 -1</clus>
</clustering>
</event>
<event>
 6    0  0.6851428E+002  0.1101359E+03  0.7546771E-02  0.1260318E+00
         21   -1    0    0  503  502  0.00000000000E+00  0.00000000000E+00  0.27841912750E+03  0.27841912750E+03  0.00000000000E+00 0.  1.
          1   -1    0    0  505    0 -0.00000000000E+00 -0.00000000000E+00 -0.14056378403E+04  0.14056378403E+04  0.00000000000E+00 0.  1.
         21    1    1    2  503  501  0.11765253243E+03 -0.61839477937E+02  0.37143337771E+02  0.13800676418E+03  0.00000000000E+00 0.  1.
         21    1    1    2  504  502 -0.75442531239E+02  0.71607100962E+02  0.15221486530E+03  0.18435975061E+03  0.00000000000E+00 0.  1.
         21    1    1    2  505  504 -0.13947438606E+02 -0.36534701093E+02  0.51024955999E+01  0.39437937180E+02  0.00000000000E+00 0.  1.
          1    1    1    2  501    0 -0.28262562587E+02  0.26767078068E+02 -0.13216794115E+04  0.13222525159E+04  0.00000000000E+00 0.  1.
<scales pt_clust_3="14000.00000" pt_clust_4="110.13590" pt_clust_5="36.79081" pt_clust_6="38.92620"></scales>
<clustering>
<clus scale="   38.926">  2  6  1 -1</clus>
<clus scale="   36.791">  2  5  1 -1</clus>
<clus scale="  110.136">  1  4  2 -1</clus>
<clus scale="  110.136">  1  3  2 -1</clus>
</clustering>
</event>
<event>
 6    0  0.6851428E+002  0.9847805E+02  0.7546771E-02  0.1283529E+00
         21   -1    0    0  504  502  0.00000000000E+00  0.00000000000E+00  0.12997820376E+03  0.12997820376E+03  0.00000000000E+00 0. -1.
          2   -1    0    0  505    0 -0.00000000000E+00 -0.00000000000E+00 -0.16206148751E+04  0.16206148751E+04  0.00000000000E+00 0. -1.
         21    1    1    2  503  502 -0.20663280253E+02 -0.95616746870E+02  0.99553143769E+02  0.13957206693E+03  0.00000000000E+00 0. -1.
         21    1    1    2  504  501  0.36619124988E+01  0.12431088578E+03 -0.72499365429E+03  0.73558303725E+03  0.00000000000E+00 0. -1.
         21    1    1    2  505  503  0.38500457265E+02  0.72162918383E+01 -0.79484473284E+02  0.88612310492E+02  0.00000000000E+00 0. -1.
          2    1    1    2  501    0 -0.21499089510E+02 -0.35910430749E+02 -0.78571168751E+03  0.78682566416E+03  0.00000000000E+00 0. -1.
<scales pt_clust_3="14000.00000" pt_clust_4="98.47805" pt_clust_5="39.17091" pt_clust_6="32.26796"></scales>
<clustering>
<clus scale="   39.171">  2  5  1 -1</clus>
<clus scale="   32.268">  2  6  1 -1</clus>
<clus scale="   98.478">  2  4  1 -1</clus>
<clus scale="   98.478">  1  3  2 -1</clus>
</clustering>
</event>
<event>
 6    0  0.6851428E+002  0.9158227E+02  0.7546771E-02  0.1299065E+00
         21   -1    0    0  504  502  0.00000000000E+00  0.00000000000E+00  0.13640950592E+03  0.13640950592E+03  0.00000000000E+00 0.  1.
          2   -1    0    0  502    0 -0.00000000000E+00 -0.00000000000E+00 -0.76246041838E+03  0.76246041838E+03  0.00000000000E+00 0. -1.
         21    1    1    2  503  505  0.54512691689E+02 -0.95001779824E+02  0.84542568293E+01  0.10985647993E+03  0.00000000000E+00 0.  1.
         21    1    1    2  504  503  0.29510240681E+02  0.63029669698E+02  0.39646736186E+02  0.80096549598E+02  0.00000000000E+00 0.  1.
         21    1    1    2  505  501 -0.63756313395E+02  0.70859026428E+02 -0.12102711372E+03  0.15405658499E+03  0.00000000000E+00 0.  1.
          2    1    1    2  501    0 -0.20266618975E+02 -0.38886916302E+02 -0.55312479176E+03  0.55486030977E+03  0.00000000000E+00 0. -1.
<scales pt_clust_3="14000.00000" pt_clust_4="65.34573" pt_clust_5="91.58227" pt_clust_6="43.85120"></scales>
<clustering>
<clus scale="   43.851">  2  6  1 -1</clus>
<clus scale="   65.346">  1  4  2 -1</clus>
<clus scale="   91.582">  2  5  1 -1</clus>
<clus scale="   65.346">  1  3  2 -1</clus>
</clustering>
</event>
<event>
 6    0  0.6851428E+002  0.1386011E+03  0.7546771E-02  0.1215224E+00
         21   -1    0    0  504  502  0.00000000000E+00  0.00000000000E+00  0.86703874619E+02  0.86703874619E+02  0.00000000000E+00 0. -1.
          1   -1    0    0  503    0 -0.00000000000E+00 -0.00000000000E+00 -0.61375909267E+03  0.61375909267E+03  0.00000000000E+00 0. -1.
         21    1    1    2  503  505 -0.28514371712E+02 -0.30730587501E+02 -0.90296457836E+02  0.99553446449E+02  0.00000000000E+00 0.  1.
         21    1    1    2  504  501  0.20853466707E+02  0.90740412913E+02 -0.22781513667E+03  0.24610653405E+03  0.00000000000E+00 0. -1.
         21    1    1    2  505  502 -0.39780279671E+02 -0.12274739946E+03  0.26534255884E+01  0.12905981324E+03  0.00000000000E+00 0. -1.
          1    1    1    2  501    0  0.47441184676E+02  0.62737574048E+02 -0.21159704913E+03  0.22574317355E+03  0.00000000000E+00 0. -1.
<scales pt_clust_3="41.92181" pt_clust_4="33.63839" pt_clust_5="133.68190" pt_clust_6="33.63839"></scales>
<clustering>
<clus scale="   33.638">  4  6 -1 -1</clus>
<clus scale="   41.922">  2  3  1 -1</clus>
<clus scale="  133.682">  1  5  2 -1</clus>
<clus scale="  133.682">  1  3  2 -1</clus>
</clustering>
</event>
<event>
 6    0  0.6851428E+002  0.1050694E+03  0.7546771E-02  0.1269983E+00
         21   -1    0    0  505  502  0.00000000000E+00  0.00000000000E+00  0.20523956044E+03  0.20523956044E+03  0.00000000000E+00 0. -1.
          2   -1    0    0  504    0 -0.00000000000E+00 -0.00000000000E+00 -0.75975255824E+03  0.75975255824E+03  0.00000000000E+00 0. -1.
         21    1    1    2  503  502  0.50609711726E+01 -0.53919586430E+02  0.46142400174E+02  0.71148129448E+02  0.00000000000E+00 0. -1.
         21    1    1    2  504  503 -0.11158272296E+03 -0.33184212398E+02  0.10446852837E+03  0.15641473536E+03  0.00000000000E+00 0. -1.
         21    1    1    2  505  501  0.31537285572E+02  0.13425955924E+02 -0.11905010563E+02  0.36284789517E+02  0.00000000000E+00 0. -1.
          2    1    1    2  501    0  0.74984466218E+02  0.73677842904E+02 -0.69321891578E+03  0.70114446436E+03  0.00000000000E+00 0. -1.
<scales pt_clust_3="51.94707" pt_clust_4="14000.00000" pt_clust_5="34.27618" pt_clust_6="105.06941"></scales>
<clustering>
<clus scale="   34.276">  1  5  2 -1</clus>
<clus scale="   51.947">  1  3  2 -1</clus>
<clus scale="  105.069">  2  6  1 -1</clus>
<clus scale="   34.276">  1  3  2 -1</clus>
</clustering>
</event>
<event>
 6    0  0.6851428E+002  0.1096969E+03  0.7546771E-02  0.1261132E+00
         -1   -1    0    0    0  501 -0.00000000000E+00  0.00000000000E+00  0.24969849525E+04  0.24969849525E+04  0.00000000000E+00 0. -1.
         21   -1    0    0  505  502  0.00000000000E+00 -0.00000000000E+00 -0.25066117548E+02  0.25066117548E+02  0.00000000000E+00 0.  1.
         21    1    1    2  503  502  0.10881221480E+02  0.73084334395E+02  0.20654967326E+03  0.21936838523E+03  0.00000000000E+00 0.  1.
         21    1    1    2  504  503  0.57171190517E+01  0.56669383976E+02  0.82209068022E+02  0.10001217624E+03  0.00000000000E+00 0.  1.
         21    1    1    2  505  501 -0.10106600830E+02 -0.84336126791E+02  0.18051920750E+03  0.19950416020E+03  0.00000000000E+00 0.  1.
         -1    1    1    2    0  504 -0.64917397014E+01 -0.45417591581E+02  0.20026408862E+04  0.20031663484E+04  0.00000000000E+00 0. -1.
<scales pt_clust_3="34.12594" pt_clust_4="34.12594" pt_clust_5="102.57980" pt_clust_6="45.87919"></scales>
<clustering>
<clus scale="   34.126">  3  4 -1 -1</clus>
<clus scale="   45.879">  1  6  2 -1</clus>
<clus scale="  102.580">  2  5  1 -1</clus>
<clus scale="  102.580">  2  3  1 -1</clus>
</clustering>
</event>
<event>
 6    0  0.6851428E+002  0.1785250E+03  0.7546771E-02  0.1169238E+00
          2   -1    0    0  502    0 -0.00000000000E+00  0.00000000000E+00  0.32731001664E+04  0.32731001664E+04  0.00000000000E+00 0. -1.
         21   -1    0    0  504  502  0.00000000000E+00 -0.00000000000E+00 -0.12588119322E+03  0.12588119322E+03  0.00000000000E+00 0.  1.
         21    1    1    2  503  501  0.71609210937E+02 -0.68812978797E+02  0.77022829386E+03  0.77660461614E+03  0.00000000000E+00 0. -1.
         21    1    1    2  504  505 -0.10492127434E+03  0.11763531456E+03 -0.64976120860E+02  0.17049468415E+03  0.00000000000E+00 0.  1.
         21    1    1    2  505  503  0.10631302266E+02 -0.72755799181E+02  0.27487565373E+03  0.28454007787E+03  0.00000000000E+00 0. -1.
          2    1    1    2  501    0  0.22680761139E+02  0.23933463417E+02  0.21670911465E+04  0.21673419815E+04  0.00000000000E+00 0. -1.
<scales pt_clust_3="68.62673" pt_clust_4="157.76752" pt_clust_5="68.62673" pt_clust_6="32.97313"></scales>
<clustering>
<clus scale="   32.973">  1  6  2 -1</clus>
<clus scale="   68.627">  3  5 -1 -1</clus>
<clus scale="  157.768">  2  4  1 -1</clus>
<clus scale="  157.768">  2  3  1 -1</clus>
</clustering>
</event>
<event>
 6    0  0.6851428E+002  0.1224438E+03  0.7546771E-02  0.1239119E+00
         21   -1    0    0  503  502  0.00000000000E+00  0.00000000000E+00  0.13634101495E+03  0.13634101495E+03  0.00000000000E+00 0.  1.
          3   -1    0    0  504    0 -0.00000000000E+00 -0.00000000000E+00 -0.71889581720E+03  0.71889581720E+03  0.00000000000E+00 0. -1.
         21    1    1    2  503  501 -0.31649771263E+02  0.13985022545E+02 -0.13453027180E+02  0.37125096860E+02  0.00000000000E+00 0.  1.
         21    1    1    2  504  505  0.47187410931E+02  0.65431311255E+02 -0.11272726304E+02  0.81455402530E+02  0.00000000000E+00 0.  1.
         21    1    1    2  505  502  0.37606174506E+02  0.39993684654E+02  0.73613007010E+02  0.91829156450E+02  0.00000000000E+00 0.  1.
          3    1    1    2  501    0 -0.53143814175E+02 -0.11941001845E+03 -0.63144205578E+03  0.64482717630E+03  0.00000000000E+00 0. -1.
<scales pt_clust_3="34.60186" pt_clust_4="14000.00000" pt_clust_5="51.99881" pt_clust_6="122.44379"></scales>
<clustering>
<clus scale="   34.602">  1  3  2 -1</clus>
<clus scale="   51.999">  1  5  2 -1</clus>
<clus scale="  122.444">  2  6  1 -1</clus>
<clus scale="   34.602">  1  3  2 -1</clus>
</clustering>
</event>
<event>
 6    0  0.6851428E+002  0.1399276E+03  0.7546771E-02  0.1213426E+00
         21   -1    0    0  505  502  0.00000000000E+00  0.00000000000E+00  0.84417154820E+02  0.84417154820E+02  0.00000000000E+00 0. -1.
          2   -1    0    0  502    0 -0.00000000000E+00 -0.00000000000E+00 -0.90899053281E+03  0.90899053281E+03  0.00000000000E+00 0. -1.
         21    1    1    2  503  504 -0.37082199280E+02  0.38118567413E+02 -0.40643521569E+02  0.66932880789E+02  0.00000000000E+00 0. -1.
         21    1    1    2  504  501 -0.24077119774E+02  0.51309686963E+02 -0.10848455129E+03  0.12239807818E+03  0.00000000000E+00 0. -1.
         21    1    1    2  505  503  0.10767322266E+03 -0.99255875866E+02 -0.21038677833E+02  0.14794552287E+03  0.00000000000E+00 0. -1.
          2    1    1    2  501    0 -0.46513903603E+02  0.98276214894E+01 -0.65440662729E+03  0.65613120580E+03  0.00000000000E+00 0. -1.
<scales pt_clust_3="41.87837" pt_clust_4="41.87837" pt_clust_5="133.08111" pt_clust_6="47.54078"></scales>
<clustering>
<clus scale="   41.878">  3  4 -1 -1</clus>
<clus scale="   47.541">  2  6  1 -1</clus>
<clus scale="  133.081">  1  5  2 -1</clus>
<clus scale="  133.081">  1  3  2 -1</clus>
</clustering>
</event>
<event>
 6    0  0.6851428E+002  0.1207492E+03  0.7546771E-02  0.1241866E+00
         21   -1    0    0  504  502  0.00000000000E+00  0.00000000000E+00  0.90217629253E+02  0.90217629253E+02  0.00000000000E+00 0. -1.
          2   -1    0    0  505    0 -0.00000000000E+00 -0.00000000000E+00 -0.39458156640E+04  0.39458156640E+04  0.00000000000E+00 0. -1.
         21    1    1    2  503  502 -0.46833327608E+02  0.34756526613E+01 -0.14261268969E+02  0.49079777188E+02  0.00000000000E+00 0. -1.
         21    1    1    2  504  501 -0.44925302643E+01  0.55055651955E+02 -0.59277058231E+02  0.81025164442E+02  0.00000000000E+00 0. -1.
         21    1    1    2  505  503 -0.63637286343E+02 -0.96958894752E+02  0.58070523066E+01  0.11612257895E+03  0.00000000000E+00 0. -1.
          2    1    1    2  501    0  0.11496314422E+03  0.38427590136E+02 -0.37878667598E+04  0.37898057726E+04  0.00000000000E+00 0. -1.
<scales pt_clust_3="46.96212" pt_clust_4="56.74951" pt_clust_5="120.74922" pt_clust_6="14000.00000"></scales>
<clustering>
<clus scale="   46.962">  1  3  2 -1</clus>
<clus scale="   56.750">  1  4  2 -1</clus>
<clus scale="  120.749">  1  5  2 -1</clus>
<clus scale="   46.962">  1  3  2 -1</clus>
</clustering>
</event>
<event>
 6    0  0.6851428E+002  0.1219105E+03  0.7546771E-02  0.1239978E+00
         21   -1    0    0  505  502  0.00000000000E+00  0.00000000000E+00  0.27822762809E+03  0.27822762809E+03  0.00000000000E+00 0.  1.
          2   -1    0    0  504    0 -0.00000000000E+00 -0.00000000000E+00 -0.73293087448E+03  0.73293087448E+03  0.00000000000E+00 0.  1.
         21    1    1    2  503  501 -0.14653185110E+02 -0.40897982526E+02  0.43201837136E+02  0.61267932399E+02  0.00000000000E+00 0.  1.
         21    1    1    2  504  502  0.30071646105E+02  0.29417158476E+02 -0.64764983977E+01  0.42563107778E+02  0.00000000000E+00 0. -1.
         21    1    1    2  505  503  0.31615738471E+02 -0.84024482680E+02  0.19395529395E+03  0.21372488077E+03  0.00000000000E+00 0.  1.
          2    1    1    2  501    0 -0.47034199466E+02  0.95505306730E+02 -0.68538387908E+03  0.69360258162E+03  0.00000000000E+00 0.  1.
<scales pt_clust_3="41.06156" pt_clust_4="42.06748" pt_clust_5="41.06156" pt_clust_6="106.66766"></scales>
<clustering>
<clus scale="   41.062">  3  5 -1 -1</clus>
<clus scale="   42.067">  1  4  2 -1</clus>
<clus scale="  106.668">  2  6  1 -1</clus>
<clus scale="   42.067">  1  3  2 -1</clus>
</clustering>
</event>
<event>
 6    0  0.6851428E+002  0.1075972E+03  0.7546771E-02  0.1265085E+00
          1   -1    0    0  503    0 -0.00000000000E+00  0.00000000000E+00  0.21067715615E+04  0.21067715615E+04  0.00000000000E+00 0.  1.
         21   -1    0    0  505  502  0.00000000000E+00 -0.00000000000E+00 -0.49301289104E+02  0.49301289104E+02  0.00000000000E+00 0.  1.
         21    1    1    2  503  504  0.53050948227E+02 -0.22281991520E+02  0.46860224407E+03  0.47212175696E+03  0.00000000000E+00 0.  1.
         21    1    1    2  504  502  0.35843739062E+02  0.24624747352E+02 -0.79254139406E+01  0.44203664987E+02  0.00000000000E+00 0.  1.
         21    1    1    2  505  501 -0.14493613859E+03 -0.35015371940E+02  0.24784340434E+03  0.28923850645E+03  0.00000000000E+00 0.  1.
          1    1    1    2  501    0  0.56041451301E+02  0.32672616107E+02  0.13489500380E+04  0.13505089222E+04  0.00000000000E+00 0.  1.
<scales pt_clust_3="59.38556" pt_clust_4="43.48738" pt_clust_5="107.59715" pt_clust_6="14000.00000"></scales>
<clustering>
<clus scale="   43.487">  2  4  1 -1</clus>
<clus scale="   59.386">  1  3  2 -1</clus>
<clus scale="  107.597">  2  5  1 -1</clus>
<clus scale="   43.487">  2  3  1 -1</clus>
</clustering>
</event>
<event>
 6    0  0.6851428E+002  0.2566965E+03  0.7546771E-02  0.1109144E+00
         21   -1    0    0  501  502  0.00000000000E+00  0.00000000000E+00  0.15194704640E+03  0.15194704640E+03  0.00000000000E+00 0.  1.
          4   -1    0    0  504    0 -0.00000000000E+00 -0.00000000000E+00 -0.92030608924E+03  0.92030608924E+03  0.00000000000E+00 0.  1.
         21    1    1    2  503  502 -0.23172109284E+03  0.49091371648E+01 -0.71037014278E+02  0.24241497869E+03  0.00000000000E+00 0.  1.
         21    1    1    2  504  505  0.29972582472E+02 -0.18194916720E+02 -0.52080543169E+02  0.62783705460E+02  0.00000000000E+00 0. -1.
         21    1    1    2  505  503  0.23705333149E+03  0.46608517288E+02 -0.18507536200E+03  0.30433456175E+03  0.00000000000E+00 0.  1.
          4    1    1    2  501    0 -0.35304821126E+02 -0.33322737733E+02 -0.46016612340E+03  0.46271988975E+03  0.00000000000E+00 0.  1.
<scales pt_clust_3="243.86546" pt_clust_4="30.53113" pt_clust_5="30.53113" pt_clust_6="48.54725"></scales>
<clustering>
<clus scale="   30.531">  4  5 -1 -1</clus>
<clus scale="   48.547">  2  6  1 -1</clus>
<clus scale="  243.865">  1  3  2 -1</clus>
<clus scale="  243.865">  1  3  2 -1</clus>
</clustering>
</event>
<event>
 6    0  0.6851428E+002  0.2218338E+03  0.7546771E-02  0.1132523E+00
         21   -1    0    0  503  502  0.00000000000E+00  0.00000000000E+00  0.30977192507E+03  0.30977192507E+03  0.00000000000E+00 0.  1.
          2   -1    0    0  502    0 -0.00000000000E+00 -0.00000000000E+00 -0.11363243461E+04  0.11363243461E+04  0.00000000000E+00 0. -1.
         21    1    1    2  503  504 -0.20489474756E+03  0.82316841653E+02  0.25090208085E+03  0.33423012158E+03  0.00000000000E+00 0.  1.
         21    1    1    2  504  505  0.93828579321E+02  0.12556908184E+01 -0.26198167368E+03  0.27828003234E+03  0.00000000000E+00 0. -1.
         21    1    1    2  505  501  0.96734749783E+02 -0.33173422023E+02 -0.33491410392E+03  0.35017930371E+03  0.00000000000E+00 0. -1.
          2    1    1    2  501    0  0.14331418459E+02 -0.50399110449E+02 -0.48055872433E+03  0.48340681358E+03  0.00000000000E+00 0. -1.
<scales pt_clust_3="218.78479" pt_clust_4="35.11023" pt_clust_5="35.11023" pt_clust_6="52.39714"></scales>
<clustering>
<clus scale="   35.110">  4  5 -1 -1</clus>
<clus scale="   52.397">  2  6  1 -1</clus>
<clus scale="  218.785">  1  3  2 -1</clus>
<clus scale="  218.785">  1  3  2 -1</clus>
</clustering>
</event>
<event>
 6    0  0.6851428E+002  0.1830645E+03  0.7546771E-02  0.1164870E+00
         21   -1    0    0  504  502  0.00000000000E+00  0.00000000000E+00  0.10778994208E+03  0.10778994208E+03  0.00000000000E+00 0.  1.
          1   -1    0    0  503    0 -0.00000000000E+00 -0.00000000000E+00 -0.22719262615E+04  0.22719262615E+04  0.00000000000E+00 0.  1.
         21    1    1    2  503  505 -0.19510230737E+02  0.31381890706E+02 -0.91917499462E+02  0.99067143266E+02  0.00000000000E+00 0. -1.
         21    1    1    2  504  501  0.17221260463E+03  0.45323765371E+01 -0.23516252693E+02  0.17386988748E+03  0.00000000000E+00 0.  1.
         21    1    1    2  505  502 -0.80782151698E+01 -0.99413069938E+02 -0.70167887267E+02  0.12194977834E+03  0.00000000000E+00 0.  1.
          1    1    1    2  501    0 -0.14462415873E+03  0.63498802695E+02 -0.19785346800E+04  0.19848293944E+04  0.00000000000E+00 0.  1.
<scales pt_clust_3="36.95230" pt_clust_4="183.06454" pt_clust_5="98.43475" pt_clust_6="14000.00000"></scales>
<clustering>
<clus scale="   36.952">  2  3  1 -1</clus>
<clus scale="   98.435">  1  5  2 -1</clus>
<clus scale="  183.065">  1  4  2 -1</clus>
<clus scale="   98.435">  1  3  2 -1</clus>
</clustering>
</event>
<event>
 6    0  0.6851428E+002  0.9875294E+02  0.7546771E-02  0.1282940E+00
          2   -1    0    0  504    0 -0.00000000000E+00  0.00000000000E+00  0.25968829703E+04  0.25968829703E+04  0.00000000000E+00 0.  1.
         21   -1    0    0  503  502  0.00000000000E+00 -0.00000000000E+00 -0.10407801300E+02  0.10407801300E+02  0.00000000000E+00 0.  1.
         21    1    1    2  503  501 -0.37398649726E+02 -0.70935735483E+01  0.10119203929E+03  0.10811478438E+03  0.00000000000E+00 0.  1.
         21    1    1    2  504  505 -0.74697913514E+02 -0.56539038521E+02  0.92135793292E+03  0.92610846110E+03  0.00000000000E+00 0.  1.
         21    1    1    2  505  502  0.52477404901E+02 -0.24762878213E+02  0.38749913790E+03  0.39181967796E+03  0.00000000000E+00 0.  1.
          2    1    1    2  501    0  0.59619158339E+02  0.88395490283E+02  0.11764260589E+04  0.11812478482E+04  0.00000000000E+00 0.  1.
<scales pt_clust_3="38.06544" pt_clust_4="98.75294" pt_clust_5="48.94674" pt_clust_6="14000.00000"></scales>
<clustering>
<clus scale="   38.065">  2  3  1 -1</clus>
<clus scale="   48.947">  2  5  1 -1</clus>
<clus scale="   98.753">  1  4  2 -1</clus>
<clus scale="   38.065">  2  3  1 -1</clus>
</clustering>
</event>
<event>
 6    0  0.6851428E+002  0.1104142E+03  0.7546771E-02  0.1259805E+00
         21   -1    0    0  504  502  0.00000000000E+00  0.00000000000E+00  0.73203237804E+02  0.73203237804E+02  0.00000000000E+00 0. -1.
          1   -1    0    0  505    0 -0.00000000000E+00 -0.00000000000E+00 -0.25324681473E+04  0.25324681473E+04  0.00000000000E+00 0. -1.
         21    1    1    2  503  502  0.10609079813E+03 -0.21266433718E+02 -0.27700075946E+02  0.11169070175E+03  0.00000000000E+00 0. -1.
         21    1    1    2  504  501 -0.11248521869E+03  0.24414832209E+02 -0.12493592264E+03  0.16987640572E+03  0.00000000000E+00 0. -1.
         21    1    1    2  505  503  0.39292104096E+02 -0.36105701968E+02 -0.75306694902E+02  0.92296204992E+02  0.00000000000E+00 0.  1.
          1    1    1    2  501    0 -0.32897683537E+02  0.32957303476E+02 -0.22313222160E+04  0.22318080726E+04  0.00000000000E+00 0. -1.
<scales pt_clust_3="110.41424" pt_clust_4="14000.00000" pt_clust_5="40.40905" pt_clust_6="46.56653"></scales>
<clustering>
<clus scale="   46.567">  2  6  1 -1</clus>
<clus scale="   40.409">  2  5  1 -1</clus>
<clus scale="  110.414">  1  3  2 -1</clus>
<clus scale="  110.414">  1  3  2 -1</clus>
</clustering>
</event>
<event>
 6    0  0.6851428E+002  0.1701627E+03  0.7546771E-02  0.1177678E+00
          4   -1    0    0  504    0 -0.00000000000E+00  0.00000000000E+00  0.27120594625E+03  0.27120594625E+03  0.00000000000E+00 0.  1.
         21   -1    0    0  501  502  0.00000000000E+00 -0.00000000000E+00 -0.23677012845E+03  0.23677012845E+03  0.00000000000E+00 0.  1.
         21    1    1    2  503  502 -0.57067366541E+02 -0.86154958069E+02 -0.13425411144E+03  0.16942115441E+03  0.00000000000E+00 0.  1.
         21    1    1    2  504  505  0.38151004366E+02  0.57031547838E+01  0.11405180174E+02  0.40225654045E+02  0.00000000000E+00 0.  1.
         21    1    1    2  505  503 -0.54000287503E+02 -0.32451902343E+02 -0.28400245122E+02  0.69106663492E+02  0.00000000000E+00 0.  1.
          4    1    1    2  501    0  0.72916649678E+02  0.11290370563E+03  0.18568499419E+03  0.22922260275E+03  0.00000000000E+00 0.  1.
<scales pt_clust_3="48.86235" pt_clust_4="38.57493" pt_clust_5="48.86235" pt_clust_6="157.86026"></scales>
<clustering>
<clus scale="   38.575">  1  4  2 -1</clus>
<clus scale="   48.862">  3  5 -1 -1</clus>
<clus scale="  157.860">  1  6  2 -1</clus>
<clus scale="  170.163">  2  3  1 -1</clus>
</clustering>
</event>
<event>
 6    0  0.6851428E+002  0.9024608E+02  0.7546771E-02  0.1302257E+00
         -1   -1    0    0    0  501 -0.00000000000E+00  0.00000000000E+00  0.20553062001E+03  0.20553062001E+03  0.00000000000E+00 0.  1.
         21   -1    0    0  504  502  0.00000000000E+00 -0.00000000000E+00 -0.24360648543E+03  0.24360648543E+03  0.00000000000E+00 0.  1.
         21    1    1    2  503  505 -0.53889926467E+02  0.16953686420E+02 -0.87671109657E+01  0.57170043664E+02  0.00000000000E+00 0.  1.
         21    1    1    2  504  501  0.33135848725E+02 -0.11794468344E+03 -0.37091869319E+02  0.12800288900E+03  0.00000000000E+00 0.  1.
         21    1    1    2  505  502  0.26356895904E+02  0.15888457435E+02 -0.11243227252E+03  0.11656819868E+03  0.00000000000E+00 0.  1.
         -1    1    1    2    0  503 -0.56028181613E+01  0.85102539590E+02  0.12021538738E+03  0.14739597409E+03  0.00000000000E+00 0.  1.
<scales pt_clust_3="51.62821" pt_clust_4="14000.00000" pt_clust_5="30.77546" pt_clust_6="90.24608"></scales>
<clustering>
<clus scale="   30.775">  2  5  1 -1</clus>
<clus scale="   51.628">  2  3  1 -1</clus>
<clus scale="   90.246">  1  6  2 -1</clus>
<clus scale="   30.775">  2  3  1 -1</clus>
</clustering>
</event>
<event>
 6    0  0.6851428E+002  0.3893010E+03  0.7546771E-02  0.1047549E+00
         21   -1    0    0  505  502  0.00000000000E+00  0.00000000000E+00  0.17686292016E+03  0.17686292016E+03  0.00000000000E+00 0. -1.
         -1   -1    0    0    0  501 -0.00000000000E+00 -0.00000000000E+00 -0.10849088977E+04  0.10849088977E+04  0.00000000000E+00 0. -1.
         21    1    1    2  503  501  0.30192694873E+02 -0.47897605089E+02 -0.16170276424E+03  0.17132881649E+03  0.00000000000E+00 0. -1.
         21    1    1    2  504  502 -0.17894495293E+03  0.23399819750E+02 -0.14516076985E+03  0.23160418141E+03  0.00000000000E+00 0. -1.
         21    1    1    2  505  503  0.34877792552E+03  0.90761197953E+02 -0.52074497524E+03  0.63329216450E+03  0.00000000000E+00 0. -1.
         -1    1    1    2    0  504 -0.20002566746E+03 -0.66263412614E+02 -0.80437468204E+02  0.22554665545E+03  0.00000000000E+00 0. -1.
<scales pt_clust_3="56.61960" pt_clust_4="102.44224" pt_clust_5="372.71832" pt_clust_6="102.44224"></scales>
<clustering>
<clus scale="   56.620">  2  3  1 -1</clus>
<clus scale="  102.442">  4  6 -1 -1</clus>
<clus scale="  372.718">  2  5  1 -1</clus>
<clus scale="  389.301">  1  3  2 -1</clus>
</clustering>
</event>
<event>
 6    0  0.6851428E+002  0.7211025E+02  0.7546771E-02  0.1353061E+00
         21   -1    0    0  503  502  0.00000000000E+00  0.00000000000E+00  0.52026647572E+03  0.52026647572E+03  0.00000000000E+00 0. -1.
         -2   -1    0    0    0  501 -0.00000000000E+00 -0.00000000000E+00 -0.47356111308E+03  0.47356111308E+03  0.00000000000E+00 0.  1.
         21    1    1    2  503  504  0.27034832324E+02  0.16141268450E+02  0.42420837784E+02  0.52829444293E+02  0.00000000000E+00 0. -1.
         21    1    1    2  504  505  0.78111272804E+01  0.42323901674E+02  0.36989728737E+03  0.37239270879E+03  0.00000000000E+00 0. -1.
         21    1    1    2  505  501 -0.64691723694E+02 -0.10628203046E+03  0.60800228949E+02  0.13848305656E+03  0.00000000000E+00 0. -1.
         -2    1    1    2    0  502  0.29845764089E+02  0.47816860340E+02 -0.42641299146E+03  0.43012237915E+03  0.00000000000E+00 0.  1.
<scales pt_clust_3="31.48687" pt_clust_4="14000.00000" pt_clust_5="72.11025" pt_clust_6="56.47678"></scales>
<clustering>
<clus scale="   31.487">  1  3  2 -1</clus>
<clus scale="   56.477">  2  6  1 -1</clus>
<clus scale="   72.110">  2  5  1 -1</clus>
<clus scale="   31.487">  1  3  2 -1</clus>
</clustering>
</event>
<event>
 6    0  0.6851428E+002  0.1815491E+03  0.7546771E-02  0.1166312E+00
         21   -1    0    0  503  502  0.00000000000E+00  0.00000000000E+00  0.19370049160E+03  0.19370049160E+03  0.00000000000E+00 0.  1.
          1   -1    0    0  505    0 -0.00000000000E+00 -0.00000000000E+00 -0.12780535781E+04  0.12780535781E+04  0.00000000000E+00 0. -1.
         21    1    1    2  503  504  0.34100027580E+02  0.16593840839E+02 -0.40897867025E+01  0.38143070013E+02  0.00000000000E+00 0. -1.
         21    1    1    2  504  501  0.31497998225E+02  0.16792070062E+03  0.11499915893E+03  0.20594730429E+03  0.00000000000E+00 0.  1.
         21    1    1    2  505  502 -0.40811842589E+02 -0.41781787977E+01 -0.37192300479E+02  0.55374460616E+02  0.00000000000E+00 0.  1.
          1    1    1    2  501    0 -0.24786183215E+02 -0.18033636266E+03 -0.11580701583E+04  0.11722892348E+04  0.00000000000E+00 0. -1.
<scales pt_clust_3="37.92318" pt_clust_4="181.54905" pt_clust_5="39.19838" pt_clust_6="14000.00000"></scales>
<clustering>
<clus scale="   37.923">  1  3  2 -1</clus>
<clus scale="   39.198">  1  5  2 -1</clus>
<clus scale="  181.549">  1  4  2 -1</clus>
<clus scale="   37.923">  1  3  2 -1</clus>
</clustering>
</event>
<event>
 6    0  0.6851428E+002  0.9981749E+02  0.7546771E-02  0.1280680E+00
         21   -1    0    0  503  502  0.00000000000E+00  0.00000000000E+00  0.18847384880E+04  0.18847384880E+04  0.00000000000E+00 0. -1.
         -2   -1    0    0    0  501 -0.00000000000E+00 -0.00000000000E+00 -0.50536777694E+03  0.50536777694E+03  0.00000000000E+00 0. -1.
         21    1    1    2  503  505 -0.50080887367E+02 -0.16911960851E+02  0.11725047750E+04  0.11736956833E+04  0.00000000000E+00 0. -1.
         21    1    1    2  504  502  0.63595147071E+02  0.24501843445E+00  0.74544251315E+02  0.97985959040E+02  0.00000000000E+00 0. -1.
         21    1    1    2  505  501  0.68382786656E+02  0.73753766623E+02  0.61620064352E+03  0.62435491243E+03  0.00000000000E+00 0. -1.
         -2    1    1    2    0  504 -0.81897046360E+02 -0.57086824207E+02 -0.48387895878E+03  0.49406971012E+03  0.00000000000E+00 0. -1.
<scales pt_clust_3="52.85934" pt_clust_4="57.55263" pt_clust_5="14000.00000" pt_clust_6="99.81749"></scales>
<clustering>
<clus scale="   52.859">  1  3  2 -1</clus>
<clus scale="   57.553">  1  4  2 -1</clus>
<clus scale="   99.817">  2  6  1 -1</clus>
<clus scale="   52.859">  1  3  2 -1</clus>
</clustering>
</event>
<event>
 6    0  0.6851428E+002  0.9381768E+02  0.7546771E-02  0.1293861E+00
         21   -1    0    0  505  502  0.00000000000E+00  0.00000000000E+00  0.60595446741E+02  0.60595446741E+02  0.00000000000E+00 0. -1.
          2   -1    0    0  503    0 -0.00000000000E+00 -0.00000000000E+00 -0.17481454353E+04  0.17481454353E+04  0.00000000000E+00 0.  1.
         21    1    1    2  503  504  0.92577137106E+02 -0.66759831938E+02 -0.15603168942E+03  0.19332172557E+03  0.00000000000E+00 0. -1.
         21    1    1    2  504  502  0.70518392623E+01  0.32708282321E+02  0.14255312494E+02  0.36369961557E+02  0.00000000000E+00 0.  1.
         21    1    1    2  505  501 -0.68350873412E+02  0.38407485356E+02 -0.76848462061E+02  0.10978462073E+03  0.00000000000E+00 0. -1.
          2    1    1    2  501    0 -0.31278102956E+02 -0.43559357387E+01 -0.14689251496E+04  0.14692645742E+04  0.00000000000E+00 0.  1.
<scales pt_clust_3="14000.00000" pt_clust_4="33.05079" pt_clust_5="93.81768" pt_clust_6="31.57996"></scales>
<clustering>
<clus scale="   31.580">  2  6  1 -1</clus>
<clus scale="   33.051">  1  4  2 -1</clus>
<clus scale="   93.818">  1  5  2 -1</clus>
<clus scale="   33.051">  1  3  2 -1</clus>
</clustering>
</event>
<event>
 6    0  0.6851428E+002  0.1405653E+03  0.7546771E-02  0.1212570E+00
         21   -1    0    0  503  502  0.00000000000E+00  0.00000000000E+00  0.11759544904E+03  0.11759544904E+03  0.00000000000E+00 0.  1.
          1   -1    0    0  505    0 -0.00000000000E+00 -0.00000000000E+00 -0.98382925927E+03  0.98382925927E+03  0.00000000000E+00 0. -1.
         21    1    1    2  503  501 -0.41126027371E+02  0.12145543841E+02 -0.51391688853E+02  0.66932578358E+02  0.00000000000E+00 0.  1.
         21    1    1    2  504  502  0.25888481898E+02  0.32222809290E+02  0.60259106004E+02  0.73073133160E+02  0.00000000000E+00 0.  1.
         21    1    1    2  505  504 -0.85697265553E+02 -0.13789395984E+03 -0.14254372934E+03  0.21604971710E+03  0.00000000000E+00 0. -1.
          1    1    1    2  501    0  0.10093481102E+03  0.93525606710E+02 -0.73255749803E+03  0.74536927969E+03  0.00000000000E+00 0. -1.
<scales pt_clust_3="40.90444" pt_clust_4="41.33428" pt_clust_5="140.56532" pt_clust_6="14000.00000"></scales>
<clustering>
<clus scale="   41.334">  1  4  2 -1</clus>
<clus scale="   40.904">  1  3  2 -1</clus>
<clus scale="  140.565">  1  5  2 -1</clus>
<clus scale="   41.334">  1  3  2 -1</clus>
</clustering>
</event>
<event>
 6    0  0.6851428E+002  0.9400386E+02  0.7546771E-02  0.1293436E+00
         21   -1    0    0  504  502  0.00000000000E+00  0.00000000000E+00  0.11510795784E+03  0.11510795784E+03  0.00000000000E+00 0. -1.
          1   -1    0    0  503    0 -0.00000000000E+00 -0.00000000000E+00 -0.12517295185E+04  0.12517295185E+04  0.00000000000E+00 0.  1.
         21    1    1    2  503  505  0.46444977964E+02  0.52821046150E+02 -0.31239120439E+02  0.76961558848E+02  0.00000000000E+00 0.  1.
         21    1    1    2  504  501 -0.51229256374E+02  0.59641274564E+01 -0.52044128893E+01  0.51837182007E+02  0.00000000000E+00 0. -1.
         21    1    1    2  505  502  0.56360406202E+02  0.22353963976E+02  0.53198767329E+02  0.80661663373E+02  0.00000000000E+00 0. -1.
          1    1    1    2  501    0 -0.51576127793E+02 -0.81139137582E+02 -0.11533767947E+04  0.11573770721E+04  0.00000000000E+00 0.  1.
<scales pt_clust_3="94.00386" pt_clust_4="51.57526" pt_clust_5="32.77618" pt_clust_6="14000.00000"></scales>
<clustering>
<clus scale="   51.575">  1  4  2 -1</clus>
<clus scale="   32.776">  1  5  2 -1</clus>
<clus scale="   94.004">  1  3  2 -1</clus>
<clus scale="   51.575">  1  3  2 -1</clus>
</clustering>
</event>
<event>
 6    0  0.6851428E+002  0.8804086E+02  0.7546771E-02  0.1307667E+00
         21   -1    0    0  504  502  0.00000000000E+00  0.00000000000E+00  0.23928130522E+03  0.23928130522E+03  0.00000000000E+00 0. -1.
          2   -1    0    0  503    0 -0.00000000000E+00 -0.00000000000E+00 -0.26761801649E+04  0.26761801649E+04  0.00000000000E+00 0. -1.
         21    1    1    2  503  502 -0.21482202025E+02  0.75594905430E+02 -0.69410408989E+02  0.10485170293E+03  0.00000000000E+00 0. -1.
         21    1    1    2  504  505 -0.12258254767E+02 -0.54505949638E+02  0.11184881257E+03  0.12502527836E+03  0.00000000000E+00 0. -1.
         21    1    1    2  505  501 -0.54447250089E+02 -0.16721383718E+02  0.94443798086E+02  0.11028934088E+03  0.00000000000E+00 0. -1.
          2    1    1    2  501    0  0.88187706881E+02 -0.43675720741E+01 -0.25737810613E+04  0.25752951479E+04  0.00000000000E+00 0. -1.
<scales pt_clust_3="71.49822" pt_clust_4="55.86737" pt_clust_5="88.04086" pt_clust_6="14000.00000"></scales>
<clustering>
<clus scale="   55.867">  1  4  2 -1</clus>
<clus scale="   71.498">  1  3  2 -1</clus>
<clus scale="   88.041">  1  5  2 -1</clus>
<clus scale="   55.867">  1  3  2 -1</clus>
</clustering>
</event>
<event>
 6    0  0.6851428E+002  0.9236635E+02  0.7546771E-02  0.1297220E+00
         21   -1    0    0  505  502  0.00000000000E+00  0.00000000000E+00  0.16475275323E+03  0.16475275323E+03  0.00000000000E+00 0. -1.
         -4   -1    0    0    0  501 -0.00000000000E+00 -0.00000000000E+00 -0.11306203137E+04  0.11306203137E+04  0.00000000000E+00 0.  1.
         21    1    1    2  503  502  0.11338646890E+02  0.29689840200E+02  0.68182139816E+02  0.75225366162E+02  0.00000000000E+00 0. -1.
         21    1    1    2  504  503  0.34220568786E+02  0.52362186865E+02 -0.19171703072E+02  0.65424767022E+02  0.00000000000E+00 0. -1.
         21    1    1    2  505  501  0.38836046715E+02 -0.12005866261E+03  0.91550824855E+01  0.12651536084E+03  0.00000000000E+00 0. -1.
         -4    1    1    2    0  504 -0.84395262391E+02  0.38006635545E+02 -0.10240330797E+04  0.10282075729E+04  0.00000000000E+00 0.  1.
<scales pt_clust_3="31.78131" pt_clust_4="70.29148" pt_clust_5="92.36635" pt_clust_6="14000.00000"></scales>
<clustering>
<clus scale="   31.781">  1  3  2 -1</clus>
<clus scale="   70.291">  1  4  2 -1</clus>
<clus scale="   92.366">  1  5  2 -1</clus>
<clus scale="   31.781">  1  3  2 -1</clus>
</clustering>
</event>
<event>
 6    0  0.6851428E+002  0.1744303E+03  0.7546771E-02  0.1173305E+00
          2   -1    0    0  505    0 -0.00000000000E+00  0.00000000000E+00  0.15158959066E+04  0.15158959066E+04  0.00000000000E+00 0.  1.
         21   -1    0    0  503  502  0.00000000000E+00 -0.00000000000E+00 -0.43218195105E+03  0.43218195105E+03  0.00000000000E+00 0. -1.
         21    1    1    2  503  501  0.10226318123E+03  0.14162044336E+03 -0.39315067006E+03  0.43021106166E+03  0.00000000000E+00 0. -1.
         21    1    1    2  504  502  0.43824720032E+02 -0.62922975711E+02  0.37005562972E+03  0.37791675809E+03  0.00000000000E+00 0. -1.
         21    1    1    2  505  504  0.43789784529E+02 -0.19061442991E+02  0.73531291088E+02  0.87679727458E+02  0.00000000000E+00 0. -1.
          2    1    1    2  501    0 -0.18987768579E+03 -0.59636024660E+02  0.10332777048E+04  0.10522703104E+04  0.00000000000E+00 0.  1.
<scales pt_clust_3="174.43029" pt_clust_4="87.52084" pt_clust_5="47.75860" pt_clust_6="14000.00000"></scales>
<clustering>
<clus scale="   47.759">  1  5  2 -1</clus>
<clus scale="   87.521">  1  4  2 -1</clus>
<clus scale="  174.430">  2  3  1 -1</clus>
<clus scale="  174.430">  2  3  1 -1</clus>
</clustering>
</event>
<event>
 6    0  0.6851428E+002  0.2132181E+03  0.7546771E-02  0.1139043E+00
         21   -1    0    0  501  502  0.00000000000E+00  0.00000000000E+00  0.27744964823E+02  0.27744964823E+02  0.00000000000E+00 0.  1.
          1   -1    0    0  503    0 -0.00000000000E+00 -0.00000000000E+00 -0.32565270118E+04  0.32565270118E+04  0.00000000000E+00 0.  1.
         21    1    1    2  503  504 -0.55360101168E+02 -0.64575400172E+00 -0.53914962682E+03  0.54198475799E+03  0.00000000000E+00 0.  1.
         21    1    1    2  504  505 -0.10371996303E+03 -0.49396416285E+02 -0.45067178882E+03  0.46508375365E+03  0.00000000000E+00 0.  1.
         21    1    1    2  505  502  0.20925451039E+03  0.53791806897E+02 -0.60419844692E+03  0.64166718154E+03  0.00000000000E+00 0.  1.
          1    1    1    2  501    0 -0.50174446186E+02 -0.37496366107E+01 -0.16347621844E+04  0.16355362834E+04  0.00000000000E+00 0.  1.
<scales pt_clust_3="61.06051" pt_clust_4="61.06051" pt_clust_5="197.05862" pt_clust_6="50.31436"></scales>
<clustering>
<clus scale="   50.314">  2  6  1 -1</clus>
<clus scale="   61.061">  3  4 -1 -1</clus>
<clus scale="  197.059">  1  5  2 -1</clus>
<clus scale="  197.059">  1  3  2 -1</clus>
</clustering>
</event>
<event>
 6    0  0.6851428E+002  0.1502388E+03  0.7546771E-02  0.1200180E+00
         -3   -1    0    0    0  501 -0.00000000000E+00  0.00000000000E+00  0.19619488141E+03  0.19619488141E+03  0.00000000000E+00 0.  1.
         21   -1    0    0  503  502  0.00000000000E+00 -0.00000000000E+00 -0.41651720584E+03  0.41651720584E+03  0.00000000000E+00 0. -1.
         21    1    1    2  503  501 -0.12746944451E+03 -0.58419370404E+02 -0.51078718489E+02  0.14923242813E+03  0.00000000000E+00 0. -1.
         21    1    1    2  504  505  0.40141925296E+02  0.12183069507E+02 -0.11894323039E+03  0.12612411904E+03  0.00000000000E+00 0. -1.
         21    1    1    2  505  502  0.62809327011E+02  0.86050871482E+02 -0.17460909850E+03  0.20454364160E+03  0.00000000000E+00 0. -1.
         -3    1    1    2    0  504  0.24518192201E+02 -0.39814570585E+02  0.12430872294E+03  0.13281189848E+03  0.00000000000E+00 0.  1.
<scales pt_clust_3="140.18684" pt_clust_4="33.90477" pt_clust_5="33.90477" pt_clust_6="46.75833"></scales>
<clustering>
<clus scale="   33.905">  4  5 -1 -1</clus>
<clus scale="   46.758">  1  6  2 -1</clus>
<clus scale="  140.187">  1  3  2 -1</clus>
<clus scale="  150.239">  2  3  1 -1</clus>
</clustering>
</event>
<event>
 6    0  0.6851428E+002  0.8372722E+02  0.7546771E-02  0.1318795E+00
          2   -1    0    0  504    0 -0.00000000000E+00  0.00000000000E+00  0.85247563027E+03  0.85247563027E+03  0.00000000000E+00 0. -1.
         21   -1    0    0  505  502  0.00000000000E+00 -0.00000000000E+00 -0.11211186918E+03  0.11211186918E+03  0.00000000000E+00 0.  1.
         21    1    1    2  503  502 -0.42209707825E+02 -0.29254408903E+02  0.54080119824E+02  0.74579750838E+02  0.00000000000E+00 0.  1.
         21    1    1    2  504  503 -0.11815744650E+03 -0.12576094141E+02  0.37900749338E+03  0.39719770939E+03  0.00000000000E+00 0. -1.
         21    1    1    2  505  501  0.11342777477E+03  0.13866946904E+02 -0.54730969364E+02  0.12670292544E+03  0.00000000000E+00 0.  1.
          2    1    1    2  501    0  0.46939379555E+02  0.27963556141E+02  0.36200711725E+03  0.36610711379E+03  0.00000000000E+00 0. -1.
<scales pt_clust_3="51.35640" pt_clust_4="83.72722" pt_clust_5="14000.00000" pt_clust_6="53.60652"></scales>
<clustering>
<clus scale="   51.356">  2  3  1 -1</clus>
<clus scale="   53.607">  1  6  2 -1</clus>
<clus scale="   83.727">  1  4  2 -1</clus>
<clus scale="   51.356">  2  3  1 -1</clus>
</clustering>
</event>
<event>
 6    0  0.6851428E+002  0.7418254E+02  0.7546771E-02  0.1346421E+00
         21   -1    0    0  503  502  0.00000000000E+00  0.00000000000E+00  0.53471910458E+03  0.53471910458E+03  0.00000000000E+00 0.  1.
          2   -1    0    0  504    0 -0.00000000000E+00 -0.00000000000E+00 -0.10711033165E+04  0.10711033165E+04  0.00000000000E+00 0.  1.
         21    1    1    2  503  505 -0.36826166085E+02 -0.10634230527E+02  0.23256307164E+03  0.23570073325E+03  0.00000000000E+00 0.  1.
         21    1    1    2  504  502  0.23423479877E+02  0.59884847326E+02  0.50570456455E+02  0.81806023096E+02  0.00000000000E+00 0.  1.
         21    1    1    2  505  501 -0.56619082889E+02 -0.73683077318E+02  0.22382109712E+03  0.24234438294E+03  0.00000000000E+00 0.  1.
          2    1    1    2  501    0  0.70021769097E+02  0.24432460519E+02 -0.10433388372E+04  0.10459712818E+04  0.00000000000E+00 0.  1.
<scales pt_clust_3="38.33084" pt_clust_4="59.54626" pt_clust_5="14000.00000" pt_clust_6="74.18254"></scales>
<clustering>
<clus scale="   38.331">  1  3  2 -1</clus>
<clus scale="   59.546">  1  4  2 -1</clus>
<clus scale="   74.183">  2  6  1 -1</clus>
<clus scale="   38.331">  1  3  2 -1</clus>
</clustering>
</event>
<event>
 6    0  0.6851428E+002  0.6311096E+02  0.7546771E-02  0.1385222E+00
         21   -1    0    0  501  502  0.00000000000E+00  0.00000000000E+00  0.14119046052E+04  0.14119046052E+04  0.00000000000E+00 0. -1.
          2   -1    0    0  504    0 -0.00000000000E+00 -0.00000000000E+00 -0.43373309360E+03  0.43373309360E+03  0.00000000000E+00 0.  1.
         21    1    1    2  503  502 -0.34316021207E+02  0.94051784777E+01  0.12603465257E+04  0.12608486870E+04  0.00000000000E+00 0. -1.
         21    1    1    2  504  505  0.45438026082E+02 -0.82370782714E+02  0.86418382154E+02  0.12774074070E+03  0.00000000000E+00 0. -1.
         21    1    1    2  505  503  0.42119106980E+02  0.39925228936E+02  0.21548740117E+02  0.61906310495E+02  0.00000000000E+00 0. -1.
          2    1    1    2  501    0 -0.53241111855E+02  0.33040375300E+02 -0.39014213641E+03  0.39514196056E+03  0.00000000000E+00 0.  1.
<scales pt_clust_3="35.58155" pt_clust_4="14000.00000" pt_clust_5="53.61195" pt_clust_6="63.11096"></scales>
<clustering>
<clus scale="   35.582">  1  3  2 -1</clus>
<clus scale="   53.612">  1  5  2 -1</clus>
<clus scale="   63.111">  2  6  1 -1</clus>
<clus scale="   35.582">  1  3  2 -1</clus>
</clustering>
</event>
<event>
 6    0  0.6851428E+002  0.1415213E+03  0.7546771E-02  0.1211296E+00
          1   -1    0    0  504    0 -0.00000000000E+00  0.00000000000E+00  0.68928518455E+03  0.68928518455E+03  0.00000000000E+00 0. -1.
         21   -1    0    0  501  502  0.00000000000E+00 -0.00000000000E+00 -0.29154859722E+03  0.29154859722E+03  0.00000000000E+00 0. -1.
         21    1    1    2  503  505 -0.64789112603E+02  0.10585128069E+03  0.19738737827E+03  0.23316067386E+03  0.00000000000E+00 0.  1.
         21    1    1    2  504  503 -0.55533730398E+02  0.13844651670E+02  0.67957015182E+02  0.88847203131E+02  0.00000000000E+00 0.  1.
         21    1    1    2  505  502  0.34981728421E+02 -0.47032923156E+02 -0.25184401682E+03  0.25857537778E+03  0.00000000000E+00 0. -1.
          1    1    1    2  501    0  0.85341114580E+02 -0.72663009206E+02  0.38423621070E+03  0.40025052700E+03  0.00000000000E+00 0. -1.
<scales pt_clust_3="45.43704" pt_clust_4="45.43704" pt_clust_5="58.61584" pt_clust_6="124.70593"></scales>
<clustering>
<clus scale="   45.437">  3  4 -1 -1</clus>
<clus scale="   58.616">  2  5  1 -1</clus>
<clus scale="  124.706">  1  6  2 -1</clus>
<clus scale="   58.616">  2  3  1 -1</clus>
</clustering>
</event>
<event>
 6    0  0.6851428E+002  0.9595097E+02  0.7546771E-02  0.1289049E+00
          1   -1    0    0  504    0 -0.00000000000E+00  0.00000000000E+00  0.17274948755E+04  0.17274948755E+04  0.00000000000E+00 0. -1.
         21   -1    0    0  503  502  0.00000000000E+00 -0.00000000000E+00 -0.64890080312E+02  0.64890080312E+02  0.00000000000E+00 0. -1.
         21    1    1    2  503  505  0.36719871474E+01 -0.95003589177E+02  0.16736693929E+01  0.95089256046E+02  0.00000000000E+00 0. -1.
         21    1    1    2  504  502 -0.44861498441E+02  0.45139035778E+02  0.14384737260E+03  0.15729638647E+03  0.00000000000E+00 0. -1.
         21    1    1    2  505  501  0.67149292111E+02  0.10163291869E+03  0.33435004565E+03  0.35584860632E+03  0.00000000000E+00 0. -1.
          1    1    1    2  501    0 -0.25959780817E+02 -0.51768365291E+02  0.11827337076E+04  0.11841507070E+04  0.00000000000E+00 0. -1.
<scales pt_clust_3="95.95097" pt_clust_4="60.48269" pt_clust_5="14000.00000" pt_clust_6="57.91264"></scales>
<clustering>
<clus scale="   57.913">  1  6  2 -1</clus>
<clus scale="   60.483">  1  4  2 -1</clus>
<clus scale="   95.951">  2  3  1 -1</clus>
<clus scale="   95.951">  2  3  1 -1</clus>
</clustering>
</event>
<event>
 6    0  0.6851428E+002  0.2173107E+03  0.7546771E-02  0.1135904E+00
          2   -1    0    0  504    0 -0.00000000000E+00  0.00000000000E+00  0.19735400153E+04  0.19735400153E+04  0.00000000000E+00 0. -1.
         21   -1    0    0  503  502  0.00000000000E+00 -0.00000000000E+00 -0.32117983186E+03  0.32117983186E+03  0.00000000000E+00 0.  1.
         21    1    1    2  503  505  0.49075152281E+02  0.11394011579E+03 -0.16136610120E+03  0.20354296641E+03  0.00000000000E+00 0.  1.
         21    1    1    2  504  502  0.23362406920E+02 -0.49492080127E+02 -0.31058610987E+02  0.62927778992E+02  0.00000000000E+00 0.  1.
         21    1    1    2  505  501 -0.79608602152E+01  0.14931963966E+03 -0.19360244172E+02  0.15077980348E+03  0.00000000000E+00 0. -1.
          2    1    1    2  501    0 -0.64476698986E+02 -0.21376767532E+03  0.18641451398E+04  0.18774692983E+04  0.00000000000E+00 0. -1.
<scales pt_clust_3="103.62395" pt_clust_4="54.72904" pt_clust_5="217.31070" pt_clust_6="14000.00000"></scales>
<clustering>
<clus scale="   54.729">  2  4  1 -1</clus>
<clus scale="  103.624">  2  3  1 -1</clus>
<clus scale="  217.311">  2  5  1 -1</clus>
<clus scale="   54.729">  2  3  1 -1</clus>
</clustering>
</event>
<event>
 6    0  0.6851428E+002  0.1284136E+03  0.7546771E-02  0.1229829E+00
          1   -1    0    0  504    0 -0.00000000000E+00  0.00000000000E+00  0.15228975349E+04  0.15228975349E+04  0.00000000000E+00 0.  1.
         21   -1    0    0  503  502  0.00000000000E+00 -0.00000000000E+00 -0.18642811410E+03  0.18642811410E+03  0.00000000000E+00 0.  1.
         21    1    1    2  503  505 -0.60528650389E+01  0.58024089164E+02  0.33199057490E+02  0.67123837172E+02  0.00000000000E+00 0.  1.
         21    1    1    2  504  502  0.45328180323E+02 -0.56446675732E+02 -0.13597288970E+03  0.15404381801E+03  0.00000000000E+00 0.  1.
         21    1    1    2  505  501  0.89518156898E+02  0.33779984144E+02  0.86952355787E+02  0.12928766345E+03  0.00000000000E+00 0.  1.
          1    1    1    2  501    0 -0.12879347218E+03 -0.35357397575E+02  0.13522908972E+04  0.13588703304E+04  0.00000000000E+00 0.  1.
<scales pt_clust_3="58.33894" pt_clust_4="40.72009" pt_clust_5="128.41363" pt_clust_6="14000.00000"></scales>
<clustering>
<clus scale="   58.339">  2  3  1 -1</clus>
<clus scale="   40.720">  2  4  1 -1</clus>
<clus scale="  128.414">  2  5  1 -1</clus>
<clus scale="   58.339">  2  3  1 -1</clus>
</clustering>
</event>
<event>
 6    0  0.6851428E+002  0.1420798E+03  0.7546771E-02  0.1210558E+00
         -2   -1    0    0    0  501 -0.00000000000E+00  0.00000000000E+00  0.62350134189E+03  0.62350134189E+03  0.00000000000E+00 0.  1.
         21   -1    0    0  503  502  0.00000000000E+00 -0.00000000000E+00 -0.46731935281E+02  0.46731935281E+02  0.00000000000E+00 0.  1.
         21    1    1    2  503  501 -0.11552155103E+03 -0.87092843732E+01  0.22665951047E+03  0.25454982631E+03  0.00000000000E+00 0.  1.
         21    1    1    2  504  502  0.52457796148E+02 -0.44624854144E+02  0.76692890374E+02  0.10307762812E+03  0.00000000000E+00 0.  1.
         21    1    1    2  505  504  0.77174279045E+02  0.19788994551E+02  0.70293612837E+02  0.10624813249E+03  0.00000000000E+00 0.  1.
         -2    1    1    2    0  505 -0.14110524166E+02  0.33545143966E+02  0.20312339292E+03  0.20635769026E+03  0.00000000000E+00 0.  1.
<scales pt_clust_3="124.07951" pt_clust_4="61.35223" pt_clust_5="61.35223" pt_clust_6="36.39208"></scales>
<clustering>
<clus scale="   36.392">  1  6  2 -1</clus>
<clus scale="   61.352">  4  5 -1 -1</clus>
<clus scale="  124.080">  1  3  2 -1</clus>
<clus scale="  142.080">  2  3  1 -1</clus>
</clustering>
</event>
<event>
 6    0  0.6851428E+002  0.1709964E+03  0.7546771E-02  0.1176813E+00
         -4   -1    0    0    0  501 -0.00000000000E+00  0.00000000000E+00  0.22708696704E+04  0.22708696704E+04  0.00000000000E+00 0. -1.
         21   -1    0    0  501  502  0.00000000000E+00 -0.00000000000E+00 -0.17873874750E+02  0.17873874750E+02  0.00000000000E+00 0. -1.
         21    1    1    2  503  505  0.19122131515E+02 -0.13180675706E+03  0.67617474197E+03  0.68916685846E+03  0.00000000000E+00 0. -1.
         21    1    1    2  504  502 -0.29531043903E+02  0.24799467727E+02  0.10906665985E+03  0.11568332829E+03  0.00000000000E+00 0. -1.
         21    1    1    2  505  504 -0.20250101151E+02 -0.47062632143E+02  0.20062952747E+03  0.20706802079E+03  0.00000000000E+00 0. -1.
         -4    1    1    2    0  503  0.30659013540E+02  0.15406992148E+03  0.12671248664E+04  0.12768253377E+04  0.00000000000E+00 0. -1.
<scales pt_clust_3="30.73534" pt_clust_4="38.56289" pt_clust_5="30.73534" pt_clust_6="163.65840"></scales>
<clustering>
<clus scale="   30.735">  3  5 -1 -1</clus>
<clus scale="   38.563">  2  4  1 -1</clus>
<clus scale="  163.658">  1  6  2 -1</clus>
<clus scale="   38.563">  2  3  1 -1</clus>
</clustering>
</event>
<event>
 6    0  0.6851428E+002  0.1069118E+03  0.7546771E-02  0.1266398E+00
         21   -1    0    0  505  502  0.00000000000E+00  0.00000000000E+00  0.64582081058E+03  0.64582081058E+03  0.00000000000E+00 0.  1.
         -2   -1    0    0    0  501 -0.00000000000E+00 -0.00000000000E+00 -0.71330275697E+03  0.71330275697E+03  0.00000000000E+00 0. -1.
         21    1    1    2  503  502 -0.80373898401E+01  0.44342062551E+02  0.27580884651E+02  0.52834868646E+02  0.00000000000E+00 0.  1.
         21    1    1    2  504  501 -0.77508492947E+02  0.74600591792E+01  0.26722385260E+03  0.27833757626E+03  0.00000000000E+00 0.  1.
         21    1    1    2  505  504 -0.14164591112E+02 -0.91955641519E+02  0.32205176063E+03  0.33522203414E+03  0.00000000000E+00 0.  1.
         -2    1    1    2    0  503  0.99710473899E+02  0.40153519789E+02 -0.68433844427E+03  0.69272908851E+03  0.00000000000E+00 0. -1.
<scales pt_clust_3="45.06460" pt_clust_4="14000.00000" pt_clust_5="70.37558" pt_clust_6="106.91182"></scales>
<clustering>
<clus scale="   45.065">  1  3  2 -1</clus>
<clus scale="   70.376">  1  5  2 -1</clus>
<clus scale="  106.912">  2  6  1 -1</clus>
<clus scale="   45.065">  1  3  2 -1</clus>
</clustering>
</event>
<event>
 6    0  0.6851428E+002  0.1173324E+03  0.7546771E-02  0.1247564E+00
         21   -1    0    0  505  502  0.00000000000E+00  0.00000000000E+00  0.23055084936E+02  0.23055084936E+02  0.00000000000E+00 0. -1.
          1   -1    0    0  502    0 -0.00000000000E+00 -0.00000000000E+00 -0.14221313751E+04  0.14221313751E+04  0.00000000000E+00 0. -1.
         21    1    1    2  503  501 -0.53654332820E+02  0.12181122718E+03 -0.48864432688E+03  0.50644845807E+03  0.00000000000E+00 0. -1.
         21    1    1    2  504  503  0.58230806282E+02 -0.86662306741E+02 -0.33292598002E+03  0.34891387245E+03  0.00000000000E+00 0. -1.
         21    1    1    2  505  504 -0.37591673012E+02 -0.32642324514E+02 -0.10548869922E+03  0.11664699264E+03  0.00000000000E+00 0.  1.
          1    1    1    2  501    0  0.33015199550E+02 -0.25065959210E+01 -0.47201728400E+03  0.47317713683E+03  0.00000000000E+00 0. -1.
<scales pt_clust_3="117.33242" pt_clust_4="14000.00000" pt_clust_5="47.14289" pt_clust_6="33.11022"></scales>
<clustering>
<clus scale="   33.110">  2  6  1 -1</clus>
<clus scale="   47.143">  1  5  2 -1</clus>
<clus scale="  117.332">  2  3  1 -1</clus>
<clus scale="   47.143">  1  3  2 -1</clus>
</clustering>
</event>
<event>
 6    0  0.6851428E+002  0.7308420E+02  0.7546771E-02  0.1349908E+00
         21   -1    0    0  504  502  0.00000000000E+00  0.00000000000E+00  0.78131187558E+02  0.78131187558E+02  0.00000000000E+00 0. -1.
         -1   -1    0    0    0  501 -0.00000000000E+00 -0.00000000000E+00 -0.89784145516E+03  0.89784145516E+03  0.00000000000E+00 0. -1.
         21    1    1    2  503  501  0.49240349739E+02 -0.59709943629E+02 -0.13004993770E+03  0.15133696081E+03  0.00000000000E+00 0. -1.
         21    1    1    2  504  503  0.67655876180E+02  0.27697290889E+02 -0.82577809649E+02  0.11028849510E+03  0.00000000000E+00 0. -1.
         21    1    1    2  505  502 -0.54751366351E+02 -0.61467201491E+01  0.36860040716E+02  0.66288437057E+02  0.00000000000E+00 0. -1.
         -1    1    1    2    0  505 -0.62144859568E+02  0.38159372889E+02 -0.64394256097E+03  0.64805874976E+03  0.00000000000E+00 0. -1.
<scales pt_clust_3="73.08420" pt_clust_4="46.12893" pt_clust_5="55.09532" pt_clust_6="14000.00000"></scales>
<clustering>
<clus scale="   55.095">  1  5  2 -1</clus>
<clus scale="   46.129">  1  4  2 -1</clus>
<clus scale="   73.084">  1  3  2 -1</clus>
<clus scale="   55.095">  1  3  2 -1</clus>
</clustering>
</event>
<event>
 6    0  0.6851428E+002  0.1033557E+03  0.7546771E-02  0.1273394E+00
         21   -1    0    0  504  502  0.00000000000E+00  0.00000000000E+00  0.29164965278E+03  0.29164965278E+03  0.00000000000E+00 0.  1.
         -2   -1    0    0    0  501 -0.00000000000E+00 -0.00000000000E+00 -0.35711814747E+03  0.35711814747E+03  0.00000000000E+00 0. -1.
         21    1    1    2  503  501 -0.46775660549E+02  0.13502371441E+03  0.14141096066E+03  0.20103836864E+03  0.00000000000E+00 0.  1.
         21    1    1    2  504  503  0.36356808457E+02  0.20564029534E+02  0.20658854770E+01  0.41820625470E+02  0.00000000000E+00 0.  1.
         21    1    1    2  505  502  0.31690787287E+02 -0.55515176795E+02  0.78246313873E+02  0.10103824270E+03  0.00000000000E+00 0.  1.
         -2    1    1    2    0  505 -0.21271935195E+02 -0.10007256715E+03 -0.28719165470E+03  0.30487056344E+03  0.00000000000E+00 0. -1.
<scales pt_clust_3="103.35571" pt_clust_4="41.76957" pt_clust_5="65.46752" pt_clust_6="14000.00000"></scales>
<clustering>
<clus scale="   41.770">  1  4  2 -1</clus>
<clus scale="   65.468">  1  5  2 -1</clus>
<clus scale="  103.356">  1  3  2 -1</clus>
<clus scale="   41.770">  1  3  2 -1</clus>
</clustering>
</event>
<event>
 6    0  0.6851428E+002  0.8295066E+02  0.7546771E-02  0.1320880E+00
          1   -1    0    0  503    0 -0.00000000000E+00  0.00000000000E+00  0.18214836950E+04  0.18214836950E+04  0.00000000000E+00 0.  1.
         21   -1    0    0  504  502  0.00000000000E+00 -0.00000000000E+00 -0.47113842295E+02  0.47113842295E+02  0.00000000000E+00 0.  1.
         21    1    1    2  503  502 -0.53249514015E+02 -0.68258830898E+02  0.12581703471E+03  0.15272427757E+03  0.00000000000E+00 0.  1.
         21    1    1    2  504  505  0.82210815384E+02 -0.13541411185E+02  0.31638461337E+02  0.89123398828E+02  0.00000000000E+00 0.  1.
         21    1    1    2  505  501 -0.77993617286E+02  0.19736317204E+02  0.44829372886E+03  0.45545558937E+03  0.00000000000E+00 0.  1.
          1    1    1    2  501    0  0.49032315918E+02  0.62063924880E+02  0.11686206278E+04  0.11712942715E+04  0.00000000000E+00 0.  1.
<scales pt_clust_3="69.66528" pt_clust_4="82.95066" pt_clust_5="14000.00000" pt_clust_6="79.09550"></scales>
<clustering>
<clus scale="   79.096">  1  6  2 -1</clus>
<clus scale="   69.665">  1  3  2 -1</clus>
<clus scale="   82.951">  2  4  1 -1</clus>
<clus scale="   82.951">  2  3  1 -1</clus>
</clustering>
</event>
<event>
 6    0  0.6851428E+002  0.2602576E+03  0.7546771E-02  0.1106989E+00
         21   -1    0    0  501  502  0.00000000000E+00  0.00000000000E+00  0.10552242206E+04  0.10552242206E+04  0.00000000000E+00 0. -1.
          3   -1    0    0  504    0 -0.00000000000E+00 -0.00000000000E+00 -0.85846645002E+02  0.85846645002E+02  0.00000000000E+00 0. -1.
         21    1    1    2  503  502 -0.20818756828E+02  0.32222311240E+02  0.10468592145E+03  0.11149367752E+03  0.00000000000E+00 0. -1.
         21    1    1    2  504  505  0.31819046571E+02 -0.31421874058E+02  0.14440003571E+03  0.15116598893E+03  0.00000000000E+00 0.  1.
         21    1    1    2  505  503  0.22841568723E+03  0.82367404310E+01  0.51293182316E+03  0.56155197914E+03  0.00000000000E+00 0. -1.
          3    1    1    2  501    0 -0.23941597697E+03 -0.90371776134E+01  0.20735979526E+03  0.31685922000E+03  0.00000000000E+00 0. -1.
<scales pt_clust_3="38.36272" pt_clust_4="36.85875" pt_clust_5="36.85875" pt_clust_6="245.17738"></scales>
<clustering>
<clus scale="   38.363">  1  3  2 -1</clus>
<clus scale="   36.859">  4  5 -1 -1</clus>
<clus scale="  245.177">  2  6  1 -1</clus>
<clus scale="   38.363">  1  3  2 -1</clus>
</clustering>
</event>
<event>
 6    0  0.6851428E+002  0.1112883E+03  0.7546771E-02  0.1258203E+00
         -1   -1    0    0    0  501 -0.00000000000E+00  0.00000000000E+00  0.91925195636E+03  0.91925195636E+03  0.00000000000E+00 0.  1.
         21   -1    0    0  503  502  0.00000000000E+00 -0.00000000000E+00 -0.23346444419E+03  0.23346444419E+03  0.00000000000E+00 0. -1.
         21    1    1    2  503  501 -0.22900545368E+02  0.22855294944E+02  0.23505943180E+02  0.39991609744E+02  0.00000000000E+00 0. -1.
         21    1    1    2  504  502 -0.12815429611E+01 -0.70087250035E+02 -0.13215218478E+03  0.14959299754E+03  0.00000000000E+00 0. -1.
         21    1    1    2  505  504 -0.36137302802E+02 -0.33241463993E+02 -0.74047002205E+02  0.88847386668E+02  0.00000000000E+00 0. -1.
         -1    1    1    2    0  505  0.60319391132E+02  0.80473419085E+02  0.86848075598E+03  0.87428440660E+03  0.00000000000E+00 0.  1.
<scales pt_clust_3="32.35428" pt_clust_4="44.57380" pt_clust_5="44.57380" pt_clust_6="100.62988"></scales>
<clustering>
<clus scale="   32.354">  2  3  1 -1</clus>
<clus scale="   44.574">  4  5 -1 -1</clus>
<clus scale="  100.630">  1  6  2 -1</clus>
<clus scale="   32.354">  2  3  1 -1</clus>
</clustering>
</event>
<event>
 6    0  0.6851428E+002  0.1560846E+03  0.7546771E-02  0.1193189E+00
          2   -1    0    0  505    0 -0.00000000000E+00  0.00000000000E+00  0.21174134033E+04  0.21174134033E+04  0.00000000000E+00 0. -1.
         21   -1    0    0  501  502  0.00000000000E+00 -0.00000000000E+00 -0.29931436230E+03  0.29931436230E+03  0.00000000000E+00 0.  1.
         21    1    1    2  503  504  0.62035648976E+02 -0.11207586663E+03 -0.17162072679E+02  0.12924379429E+03  0.00000000000E+00 0.  1.
         21    1    1    2  504  502 -0.54056360759E+02  0.10128126872E+03 -0.11459359289E+03  0.16220874534E+03  0.00000000000E+00 0.  1.
         21    1    1    2  505  503  0.23861020335E+01 -0.92052997159E+02 -0.61843076392E+02  0.11092345950E+03  0.00000000000E+00 0.  1.
          2    1    1    2  501    0 -0.10365390250E+02  0.10284759506E+03  0.20116977830E+04  0.20143517665E+04  0.00000000000E+00 0. -1.
<scales pt_clust_3="63.55895" pt_clust_4="136.90388" pt_clust_5="63.55895" pt_clust_6="103.36861"></scales>
<clustering>
<clus scale="   63.559">  3  5 -1 -1</clus>
<clus scale="  103.369">  1  6  2 -1</clus>
<clus scale="  136.904">  2  4  1 -1</clus>
<clus scale="  136.904">  2  3  1 -1</clus>
</clustering>
</event>
<event>
 6    0  0.6851428E+002  0.1212235E+03  0.7546771E-02  0.1241092E+00
         21   -1    0    0  503  502  0.00000000000E+00  0.00000000000E+00  0.66355589265E+03  0.66355589265E+03  0.00000000000E+00 0. -1.
          1   -1    0    0  505    0 -0.00000000000E+00 -0.00000000000E+00 -0.24453509924E+03  0.24453509924E+03  0.00000000000E+00 0. -1.
         21    1    1    2  503  504  0.45989442993E+02  0.49294335842E+02  0.44779717983E+03  0.45284354326E+03  0.00000000000E+00 0. -1.
         21    1    1    2  504  501 -0.56195199485E+02  0.91599566922E+02  0.64662541733E+02  0.12541780340E+03  0.00000000000E+00 0. -1.
         21    1    1    2  505  502  0.51144711550E+02 -0.15807195937E+02  0.89606083592E+02  0.10437863373E+03  0.00000000000E+00 0. -1.
          1    1    1    2  501    0 -0.40938955058E+02 -0.12508670683E+03 -0.18304501173E+03  0.22545101150E+03  0.00000000000E+00 0. -1.
<scales pt_clust_3="94.10486" pt_clust_4="14000.00000" pt_clust_5="53.53176" pt_clust_6="121.22351"></scales>
<clustering>
<clus scale="   53.532">  1  5  2 -1</clus>
<clus scale="   94.105">  1  3  2 -1</clus>
<clus scale="  121.224">  2  6  1 -1</clus>
<clus scale="   53.532">  1  3  2 -1</clus>
</clustering>
</event>
<event>
 6    0  0.6851428E+002  0.1071571E+03  0.7546771E-02  0.1265927E+00
          1   -1    0    0  504    0 -0.00000000000E+00  0.00000000000E+00  0.16249812472E+04  0.16249812472E+04  0.00000000000E+00 0. -1.
         21   -1    0    0  501  502  0.00000000000E+00 -0.00000000000E+00 -0.94117524061E+02  0.94117524061E+02  0.00000000000E+00 0. -1.
         21    1    1    2  503  505 -0.18630260894E+02 -0.60094258679E+02  0.39899365180E+02  0.74500777774E+02  0.00000000000E+00 0. -1.
         21    1    1    2  504  503  0.52625708600E+00 -0.66238052843E+02  0.83213251292E+02  0.10635883499E+03  0.00000000000E+00 0. -1.
         21    1    1    2  505  502  0.74453211347E+02  0.66952858264E+02 -0.24957981135E+02  0.10319334636E+03  0.00000000000E+00 0. -1.
          1    1    1    2  501    0 -0.56349207539E+02  0.59379453258E+02  0.14327090878E+04  0.14350458121E+04  0.00000000000E+00 0. -1.
<scales pt_clust_3="34.67488" pt_clust_4="34.67488" pt_clust_5="101.07806" pt_clust_6="81.86057"></scales>
<clustering>
<clus scale="   34.675">  3  4 -1 -1</clus>
<clus scale="   81.861">  1  6  2 -1</clus>
<clus scale="  101.078">  2  5  1 -1</clus>
<clus scale="  101.078">  2  3  1 -1</clus>
</clustering>
</event>
<event>
 6    0  0.6851428E+002  0.1803195E+03  0.7546771E-02  0.1167494E+00
          3   -1    0    0  502    0 -0.00000000000E+00  0.00000000000E+00  0.12072275629E+04  0.12072275629E+04  0.00000000000E+00 0.  1.
         21   -1    0    0  503  502  0.00000000000E+00 -0.00000000000E+00 -0.33091919174E+03  0.33091919174E+03  0.00000000000E+00 0.  1.
         21    1    1    2  503  504  0.51298138383E+02 -0.76715388811E+01 -0.76716000577E+02  0.92605055234E+02  0.00000000000E+00 0. -1.
         21    1    1    2  504  505  0.46361834552E+02 -0.14822718199E+03 -0.21072270742E+03  0.26177237556E+03  0.00000000000E+00 0.  1.
         21    1    1    2  505  501 -0.81009253687E+02  0.12840257571E+03  0.59329124112E+03  0.61240853801E+03  0.00000000000E+00 0.  1.
          3    1    1    2  501    0 -0.16650719248E+02  0.27496145156E+02  0.57045583806E+03  0.57136078586E+03  0.00000000000E+00 0.  1.
<scales pt_clust_3="51.61315" pt_clust_4="14000.00000" pt_clust_5="180.31952" pt_clust_6="32.14474"></scales>
<clustering>
<clus scale="   32.145">  1  6  2 -1</clus>
<clus scale="   51.613">  2  3  1 -1</clus>
<clus scale="  180.320">  1  5  2 -1</clus>
<clus scale="   51.613">  2  3  1 -1</clus>
</clustering>
</event>
<event>
 6    0  0.6851428E+002  0.8303311E+02  0.7546771E-02  0.1320658E+00
          1   -1    0    0  504    0 -0.00000000000E+00  0.00000000000E+00  0.61381463623E+03  0.61381463623E+03  0.00000000000E+00 0. -1.
         21   -1    0    0  503  502  0.00000000000E+00 -0.00000000000E+00 -0.17124335073E+03  0.17124335073E+03  0.00000000000E+00 0. -1.
         21    1    1    2  503  505 -0.84389144530E+02 -0.22423630646E+02 -0.74030863279E+02  0.11447670350E+03  0.00000000000E+00 0. -1.
         21    1    1    2  504  502  0.58306291100E+02 -0.74884712490E+02 -0.28141875087E+02  0.98991458621E+02  0.00000000000E+00 0. -1.
         21    1    1    2  505  501 -0.14314977683E+02  0.68979644521E+02  0.90569124973E+02  0.11474265267E+03  0.00000000000E+00 0.  1.
          1    1    1    2  501    0  0.40397831113E+02  0.28328698615E+02  0.45417489890E+03  0.45684717216E+03  0.00000000000E+00 0. -1.
<scales pt_clust_3="81.42947" pt_clust_4="14000.00000" pt_clust_5="83.03311" pt_clust_6="49.34065"></scales>
<clustering>
<clus scale="   49.341">  1  6  2 -1</clus>
<clus scale="   81.429">  2  3  1 -1</clus>
<clus scale="   83.033">  1  5  2 -1</clus>
<clus scale="   81.429">  2  3  1 -1</clus>
</clustering>
</event>
<event>
 6    0  0.6851428E+002  0.1600996E+03  0.7546771E-02  0.1188584E+00
          2   -1    0    0  503    0 -0.00000000000E+00  0.00000000000E+00  0.16224434938E+04  0.16224434938E+04  0.00000000000E+00 0. -1.
         21   -1    0    0  504  502  0.00000000000E+00 -0.00000000000E+00 -0.27763324248E+02  0.27763324248E+02  0.00000000000E+00 0.  1.
         21    1    1    2  503  505 -0.65765363469E+01  0.76457747287E+02  0.23616375432E+03  0.24831906251E+03  0.00000000000E+00 0.  1.
         21    1    1    2  504  501  0.70828710358E+01 -0.40179564328E+02  0.49590081641E+02  0.64216358110E+02  0.00000000000E+00 0.  1.
         21    1    1    2  505  502 -0.56421666267E+02  0.96887789067E+02  0.33922565844E+03  0.35727397812E+03  0.00000000000E+00 0.  1.
          2    1    1    2  501    0  0.55915331578E+02 -0.13316597203E+03  0.96970067514E+03  0.98039741930E+03  0.00000000000E+00 0. -1.
<scales pt_clust_3="33.63126" pt_clust_4="40.79907" pt_clust_5="33.63126" pt_clust_6="154.85279"></scales>
<clustering>
<clus scale="   33.631">  3  5 -1 -1</clus>
<clus scale="   40.799">  2  4  1 -1</clus>
<clus scale="  154.853">  1  6  2 -1</clus>
<clus scale="   40.799">  2  3  1 -1</clus>
</clustering>
</event>
<event>
 6    0  0.6851428E+002  0.1101543E+03  0.7546771E-02  0.1260284E+00
         21   -1    0    0  505  502  0.00000000000E+00  0.00000000000E+00  0.78758995398E+03  0.78758995398E+03  0.00000000000E+00 0.  1.
          3   -1    0    0  503    0 -0.00000000000E+00 -0.00000000000E+00 -0.78122638572E+02  0.78122638572E+02  0.00000000000E+00 0. -1.
         21    1    1    2  503  502 -0.22864129554E+02  0.25087167222E+02  0.16327413558E+03  0.16676503749E+03  0.00000000000E+00 0.  1.
         21    1    1    2  504  501  0.53058249728E+02 -0.58205520330E+02  0.92472815283E+02  0.12146720556E+03  0.00000000000E+00 0.  1.
         21    1    1    2  505  504  0.43613071023E+02 -0.78004108714E+02  0.43342761798E+03  0.44254518523E+03  0.00000000000E+00 0.  1.
          3    1    1    2  501    0 -0.73807191197E+02  0.11112246182E+03  0.20292746563E+02  0.13493516427E+03  0.00000000000E+00 0. -1.
<scales pt_clust_3="33.94311" pt_clust_4="14000.00000" pt_clust_5="66.33629" pt_clust_6="110.15431"></scales>
<clustering>
<clus scale="   33.943">  1  3  2 -1</clus>
<clus scale="   66.336">  1  5  2 -1</clus>
<clus scale="  110.154">  2  6  1 -1</clus>
<clus scale="   33.943">  1  3  2 -1</clus>
</clustering>
</event>
<event>
 6    0  0.6851428E+002  0.1248827E+03  0.7546771E-02  0.1235253E+00
         21   -1    0    0  504  502  0.00000000000E+00  0.00000000000E+00  0.26145340563E+02  0.26145340563E+02  0.00000000000E+00 0. -1.
         -1   -1    0    0    0  501 -0.00000000000E+00 -0.00000000000E+00 -0.32443236089E+04  0.32443236089E+04  0.00000000000E+00 0.  1.
         21    1    1    2  503  502  0.30416904711E+02 -0.11045693537E+03 -0.14128481175E+03  0.18189920477E+03  0.00000000000E+00 0. -1.
         21    1    1    2  504  505 -0.83182108837E+02  0.48276185116E+02 -0.99050546891E+03  0.99516377407E+03  0.00000000000E+00 0. -1.
         21    1    1    2  505  501 -0.36749013922E+02 -0.15142061776E+01 -0.17300196074E+03  0.17686848578E+03  0.00000000000E+00 0.  1.
         -1    1    1    2    0  503  0.89514218049E+02  0.63694956434E+02 -0.19133860269E+04  0.19165374848E+04  0.00000000000E+00 0.  1.
<scales pt_clust_3="110.70578" pt_clust_4="35.73893" pt_clust_5="35.73893" pt_clust_6="109.86284"></scales>
<clustering>
<clus scale="   35.739">  4  5 -1 -1</clus>
<clus scale="  109.863">  2  6  1 -1</clus>
<clus scale="  110.706">  1  3  2 -1</clus>
<clus scale="  110.706">  1  3  2 -1</clus>
</clustering>
</event>
<event>
 6    0  0.6851428E+002  0.9833487E+02  0.7546771E-02  0.1283837E+00
          1   -1    0    0  503    0 -0.00000000000E+00  0.00000000000E+00  0.11031449820E+04  0.11031449820E+04  0.00000000000E+00 0.  1.
         21   -1    0    0  505  502  0.00000000000E+00 -0.00000000000E+00 -0.39456637253E+03  0.39456637253E+03  0.00000000000E+00 0.  1.
         21    1    1    2  503  502  0.29615761806E+02  0.39772847463E+02  0.41134938300E+02  0.64428688421E+02  0.00000000000E+00 0.  1.
         21    1    1    2  504  501 -0.66338784048E+02  0.11263033044E+03  0.67005115298E+02  0.14688809033E+03  0.00000000000E+00 0.  1.
         21    1    1    2  505  504  0.43157525351E+02 -0.86086318365E+02 -0.33501017005E+03  0.34857601788E+03  0.00000000000E+00 0.  1.
          1    1    1    2  501    0 -0.64345031087E+01 -0.66316859541E+02  0.93544872591E+03  0.93781855788E+03  0.00000000000E+00 0.  1.
<scales pt_clust_3="49.58803" pt_clust_4="14000.00000" pt_clust_5="98.33487" pt_clust_6="36.75235"></scales>
<clustering>
<clus scale="   49.588">  1  3  2 -1</clus>
<clus scale="   36.752">  1  6  2 -1</clus>
<clus scale="   98.335">  2  5  1 -1</clus>
<clus scale="   98.335">  2  3  1 -1</clus>
</clustering>
</event>
<event>
 6    0  0.8647195E+002  0.6758833E+02  0.7546771E-02  0.1368492E+00
         21   -1    0    0  505  502  0.00000000000E+00  0.00000000000E+00  0.10873555010E+04  0.10873555010E+04  0.00000000000E+00 0. -1.
          1   -1    0    0  504    0 -0.00000000000E+00 -0.00000000000E+00 -0.12342885393E+04  0.12342885393E+04  0.00000000000E+00 0.  1.
         21    1    1    2  503  501  0.89347510374E+02  0.15875795193E+02  0.11906317779E+03  0.14970323573E+03  0.00000000000E+00 0. -1.
         21    1    1    2  504  502 -0.75921581140E+02 -0.28116890030E+02  0.21675946593E+03  0.23138563494E+03  0.00000000000E+00 0. -1.
         21    1    1    2  505  503  0.35202746539E+02  0.55901066566E+01  0.72796646992E+03  0.72883857197E+03  0.00000000000E+00 0. -1.
          1    1    1    2  501    0 -0.48628675773E+02  0.66509881804E+01 -0.12107221520E+04  0.12117165977E+04  0.00000000000E+00 0.  1.
<scales pt_clust_3="14000.00000" pt_clust_4="67.58833" pt_clust_5="35.64383" pt_clust_6="49.03414"></scales>
<clustering>
<clus scale="   35.644">  1  5  2 -1</clus>
<clus scale="   49.034">  2  6  1 -1</clus>
<clus scale="   67.588">  1  4  2 -1</clus>
<clus scale="   35.644">  1  3  2 -1</clus>
</clustering>
</event>
<event>
 6    0  0.6851428E+002  0.7093967E+02  0.7546771E-02  0.1356926E+00
         21   -1    0    0  504  502  0.00000000000E+00  0.00000000000E+00  0.45112112738E+03  0.45112112738E+03  0.00000000000E+00 0.  1.
          1   -1    0    0  505    0 -0.00000000000E+00 -0.00000000000E+00 -0.22499197391E+04  0.22499197391E+04  0.00000000000E+00 0. -1.
         21    1    1    2  503  502 -0.18451714028E+02  0.84005007252E+02  0.14055128604E+03  0.16477855140E+03  0.00000000000E+00 0.  1.
         21    1    1    2  504  501  0.16551051456E+01 -0.35524425603E+02  0.28105014629E+03  0.28329120869E+03  0.00000000000E+00 0.  1.
         21    1    1    2  505  503  0.61898792696E+02  0.75345121116E+01 -0.46259053792E+02  0.77641029538E+02  0.00000000000E+00 0.  1.
          1    1    1    2  501    0 -0.45102183813E+02 -0.56015093760E+02 -0.21741409903E+04  0.21753300769E+04  0.00000000000E+00 0. -1.
<scales pt_clust_3="54.60427" pt_clust_4="35.56296" pt_clust_5="14000.00000" pt_clust_6="70.93967"></scales>
<clustering>
<clus scale="   35.563">  1  4  2 -1</clus>
<clus scale="   54.604">  1  3  2 -1</clus>
<clus scale="   70.940">  2  6  1 -1</clus>
<clus scale="   35.563">  1  3  2 -1</clus>
</clustering>
</event>
<event>
 6    0  0.6851428E+002  0.7643715E+02  0.7546771E-02  0.1339478E+00
          2   -1    0    0  504    0 -0.00000000000E+00  0.00000000000E+00  0.76255024209E+03  0.76255024209E+03  0.00000000000E+00 0. -1.
         21   -1    0    0  503  502  0.00000000000E+00 -0.00000000000E+00 -0.83894067990E+02  0.83894067990E+02  0.00000000000E+00 0. -1.
         21    1    1    2  503  505 -0.50347256546E+02 -0.30134967433E+02 -0.44055706347E+02  0.73374844229E+02  0.00000000000E+00 0. -1.
         21    1    1    2  504  502  0.70410988886E+02  0.35630866040E+02  0.14369605661E+03  0.16393847216E+03  0.00000000000E+00 0. -1.
         21    1    1    2  505  501  0.54087772828E+02 -0.35142601318E+02  0.75410333035E+02  0.99233098940E+02  0.00000000000E+00 0. -1.
          2    1    1    2  501    0 -0.74151505169E+02  0.29646702711E+02  0.50360549080E+03  0.50989789474E+03  0.00000000000E+00 0. -1.
<scales pt_clust_3="58.67676" pt_clust_4="55.41093" pt_clust_5="76.43715" pt_clust_6="14000.00000"></scales>
<clustering>
<clus scale="   58.677">  2  3  1 -1</clus>
<clus scale="   55.411">  2  4  1 -1</clus>
<clus scale="   76.437">  2  5  1 -1</clus>
<clus scale="   58.677">  2  3  1 -1</clus>
</clustering>
</event>
<event>
 6    0  0.6851428E+002  0.2389506E+03  0.7546771E-02  0.1120494E+00
         21   -1    0    0  504  502  0.00000000000E+00  0.00000000000E+00  0.20829328311E+03  0.20829328311E+03  0.00000000000E+00 0. -1.
          1   -1    0    0  503    0 -0.00000000000E+00 -0.00000000000E+00 -0.25097274239E+04  0.25097274239E+04  0.00000000000E+00 0. -1.
         21    1    1    2  503  505 -0.14841287009E+03 -0.97037878611E+01 -0.15093341645E+02  0.14949365360E+03  0.00000000000E+00 0. -1.
         21    1    1    2  504  501  0.39553067709E+02  0.26581048183E+02  0.72722179573E+02  0.86945458130E+02  0.00000000000E+00 0. -1.
         21    1    1    2  505  502 -0.97853411714E+02  0.64878840449E+02 -0.54918409820E+01  0.11753601337E+03  0.00000000000E+00 0. -1.
          1    1    1    2  501    0  0.20671321409E+03 -0.81756100771E+02 -0.23535711378E+04  0.23640455819E+04  0.00000000000E+00 0. -1.
<scales pt_clust_3="79.06378" pt_clust_4="47.65498" pt_clust_5="79.06378" pt_clust_6="223.40023"></scales>
<clustering>
<clus scale="   47.655">  1  4  2 -1</clus>
<clus scale="   79.064">  3  5 -1 -1</clus>
<clus scale="  223.400">  2  6  1 -1</clus>
<clus scale="   47.655">  1  3  2 -1</clus>
</clustering>
</event>
<event>
 6    0  0.6851428E+002  0.2275649E+03  0.7546771E-02  0.1128366E+00
          2   -1    0    0  504    0 -0.00000000000E+00  0.00000000000E+00  0.24382415199E+04  0.24382415199E+04  0.00000000000E+00 0. -1.
         21   -1    0    0  503  502  0.00000000000E+00 -0.00000000000E+00 -0.75824565775E+02  0.75824565775E+02  0.00000000000E+00 0.  1.
         21    1    1    2  503  505  0.20392408784E+03 -0.11815733934E+03  0.24847240603E+03  0.34246857812E+03  0.00000000000E+00 0.  1.
         21    1    1    2  504  502 -0.66213791602E+01  0.37997619938E+02 -0.65837213384E+01  0.39128086710E+02  0.00000000000E+00 0.  1.
         21    1    1    2  505  501 -0.10819317733E+03  0.62040963820E+02  0.90634739233E+03  0.91488821197E+03  0.00000000000E+00 0. -1.
          2    1    1    2  501    0 -0.89109531353E+02  0.18118755583E+02  0.12141808771E+04  0.12175812089E+04  0.00000000000E+00 0. -1.
<scales pt_clust_3="215.29982" pt_clust_4="38.57022" pt_clust_5="62.58718" pt_clust_6="62.58718"></scales>
<clustering>
<clus scale="   38.570">  2  4  1 -1</clus>
<clus scale="   62.587">  5  6 -1 -1</clus>
<clus scale="  215.300">  2  3  1 -1</clus>
<clus scale="   38.570">  2  3  1 -1</clus>
</clustering>
</event>
<event>
 6    0  0.6851428E+002  0.1693790E+03  0.7546771E-02  0.1178497E+00
         21   -1    0    0  504  502  0.00000000000E+00  0.00000000000E+00  0.20756019770E+02  0.20756019770E+02  0.00000000000E+00 0.  1.
         -3   -1    0    0    0  501 -0.00000000000E+00 -0.00000000000E+00 -0.28769345342E+04  0.28769345342E+04  0.00000000000E+00 0.  1.
         21    1    1    2  503  502 -0.36333283502E+02 -0.36450364530E+01 -0.20477984500E+02  0.41865757248E+02  0.00000000000E+00 0.  1.
         21    1    1    2  504  505  0.89482588048E+02  0.53155760936E+02 -0.11132281370E+04  0.11180829815E+04  0.00000000000E+00 0.  1.
         21    1    1    2  505  501  0.47829791931E+02  0.61427559945E+02 -0.70161800672E+03  0.70592411878E+03  0.00000000000E+00 0.  1.
         -3    1    1    2    0  503 -0.10097909648E+03 -0.11093828443E+03 -0.10208543862E+04  0.10318176965E+04  0.00000000000E+00 0.  1.
<scales pt_clust_3="36.51566" pt_clust_4="31.79338" pt_clust_5="31.79338" pt_clust_6="165.34176"></scales>
<clustering>
<clus scale="   31.793">  4  5 -1 -1</clus>
<clus scale="   36.516">  1  3  2 -1</clus>
<clus scale="  165.342">  1  6  2 -1</clus>
<clus scale="   36.516">  1  3  2 -1</clus>
</clustering>
</event>
<event>
 6    0  0.6851428E+002  0.1826317E+03  0.7546771E-02  0.1165280E+00
          4   -1    0    0  505    0 -0.00000000000E+00  0.00000000000E+00  0.62777917828E+03  0.62777917828E+03  0.00000000000E+00 0.  1.
         21   -1    0    0  503  502  0.00000000000E+00 -0.00000000000E+00 -0.50135136880E+03  0.50135136880E+03  0.00000000000E+00 0.  1.
         21    1    1    2  503  501  0.31012039099E+02 -0.35322746135E+02 -0.27301441103E+03  0.27703124660E+03  0.00000000000E+00 0.  1.
         21    1    1    2  504  502 -0.64313746591E+02 -0.31427497965E+01 -0.87963170668E+02  0.10901217487E+03  0.00000000000E+00 0. -1.
         21    1    1    2  505  504 -0.11418728931E+03 -0.51779166444E+02 -0.80797720149E+02  0.14915793877E+03  0.00000000000E+00 0.  1.
          4    1    1    2  501    0  0.14748899680E+03  0.90244662376E+02  0.56820311132E+03  0.59392918684E+03  0.00000000000E+00 0.  1.
<scales pt_clust_3="47.00471" pt_clust_4="41.12103" pt_clust_5="41.12103" pt_clust_6="173.38342"></scales>
<clustering>
<clus scale="   41.121">  4  5 -1 -1</clus>
<clus scale="   47.005">  2  3  1 -1</clus>
<clus scale="  173.383">  1  6  2 -1</clus>
<clus scale="   47.005">  2  3  1 -1</clus>
</clustering>
</event>
<event>
 6    0  0.6851428E+002  0.1119488E+03  0.7546771E-02  0.1257003E+00
         21   -1    0    0  505  502  0.00000000000E+00  0.00000000000E+00  0.86329089236E+02  0.86329089236E+02  0.00000000000E+00 0. -1.
          2   -1    0    0  504    0 -0.00000000000E+00 -0.00000000000E+00 -0.15093437342E+04  0.15093437342E+04  0.00000000000E+00 0. -1.
         21    1    1    2  503  501  0.23336003583E+02  0.40191277912E+02 -0.80076363776E+02  0.92585808410E+02  0.00000000000E+00 0. -1.
         21    1    1    2  504  502 -0.41719480293E+02 -0.33598556837E+02  0.33655372993E+02  0.63261854136E+02  0.00000000000E+00 0. -1.
         21    1    1    2  505  503  0.48315011493E+02  0.82162626127E+02 -0.45815782837E+02  0.10575501607E+03  0.00000000000E+00 0. -1.
          2    1    1    2  501    0 -0.29931534783E+02 -0.88755347203E+02 -0.13307778714E+04  0.13340701449E+04  0.00000000000E+00 0. -1.
<scales pt_clust_3="40.63165" pt_clust_4="53.56658" pt_clust_5="40.63165" pt_clust_6="95.63803"></scales>
<clustering>
<clus scale="   40.632">  3  5 -1 -1</clus>
<clus scale="   53.567">  1  4  2 -1</clus>
<clus scale="   95.638">  2  6  1 -1</clus>
<clus scale="   53.567">  1  3  2 -1</clus>
</clustering>
</event>
<event>
 6    0  0.6851428E+002  0.1286340E+03  0.7546771E-02  0.1229497E+00
          1   -1    0    0  505    0 -0.00000000000E+00  0.00000000000E+00  0.16018535202E+04  0.16018535202E+04  0.00000000000E+00 0. -1.
         21   -1    0    0  503  502  0.00000000000E+00 -0.00000000000E+00 -0.11894734382E+04  0.11894734382E+04  0.00000000000E+00 0. -1.
         21    1    1    2  503  504 -0.57740820162E+02 -0.21658862115E+01 -0.16024560175E+03  0.17034478641E+03  0.00000000000E+00 0. -1.
         21    1    1    2  504  501 -0.10942181644E+02  0.11479573850E+03 -0.33434028438E+03  0.35366823250E+03  0.00000000000E+00 0. -1.
         21    1    1    2  505  502  0.12699821511E+03 -0.11070376195E+03 -0.66919332828E+03  0.69007505401E+03  0.00000000000E+00 0. -1.
          1    1    1    2  501    0 -0.58315213305E+02 -0.19260903402E+01  0.15761592965E+04  0.15772388855E+04  0.00000000000E+00 0. -1.
<scales pt_clust_3="57.78143" pt_clust_4="14000.00000" pt_clust_5="128.63397" pt_clust_6="58.37747"></scales>
<clustering>
<clus scale="   57.781">  2  3  1 -1</clus>
<clus scale="   58.377">  1  6  2 -1</clus>
<clus scale="  128.634">  2  5  1 -1</clus>
<clus scale="   57.781">  2  3  1 -1</clus>
</clustering>
</event>
<event>
 6    0  0.6851428E+002  0.9430639E+02  0.7546771E-02  0.1292746E+00
         21   -1    0    0  504  502  0.00000000000E+00  0.00000000000E+00  0.53011487693E+03  0.53011487693E+03  0.00000000000E+00 0.  1.
          3   -1    0    0  503    0 -0.00000000000E+00 -0.00000000000E+00 -0.70969862462E+02  0.70969862462E+02  0.00000000000E+00 0.  1.
         21    1    1    2  503  502  0.42945726610E+02 -0.53895361524E+02  0.26333680144E+03  0.27220454886E+03  0.00000000000E+00 0.  1.
         21    1    1    2  504  505 -0.52996965068E+02  0.24029143078E+02  0.98353723447E+02  0.11427831351E+03  0.00000000000E+00 0.  1.
         21    1    1    2  505  501 -0.48592343734E+02  0.75336348222E+02  0.10721487248E+03  0.13975625251E+03  0.00000000000E+00 0.  1.
          3    1    1    2  501    0  0.58643582192E+02 -0.45470129776E+02 -0.97603829020E+01  0.74845624512E+02  0.00000000000E+00 0.  1.
<scales pt_clust_3="68.91332" pt_clust_4="36.75472" pt_clust_5="36.75472" pt_clust_6="82.53770"></scales>
<clustering>
<clus scale="   36.755">  4  5 -1 -1</clus>
<clus scale="   68.913">  1  3  2 -1</clus>
<clus scale="   82.538">  2  6  1 -1</clus>
<clus scale="   68.913">  1  3  2 -1</clus>
</clustering>
</event>
<event>
 6    0  0.6851428E+002  0.1222004E+03  0.7546771E-02  0.1239511E+00
          2   -1    0    0  505    0 -0.00000000000E+00  0.00000000000E+00  0.19068365783E+04  0.19068365783E+04  0.00000000000E+00 0.  1.
         21   -1    0    0  503  502  0.00000000000E+00 -0.00000000000E+00 -0.69243280473E+03  0.69243280473E+03  0.00000000000E+00 0.  1.
         21    1    1    2  503  501  0.11298552952E+03  0.20553715005E+02 -0.38118463997E+03  0.39810791857E+03  0.00000000000E+00 0.  1.
         21    1    1    2  504  502 -0.11775674899E+02  0.38419279472E+02 -0.22185394564E+03  0.22546370162E+03  0.00000000000E+00 0. -1.
         21    1    1    2  505  504 -0.36612365286E+02  0.45028044886E+02 -0.66225331621E+02  0.88055577146E+02  0.00000000000E+00 0.  1.
          2    1    1    2  501    0 -0.64597489339E+02 -0.10400103936E+03  0.18836676908E+04  0.18876421857E+04  0.00000000000E+00 0.  1.
<scales pt_clust_3="122.20040" pt_clust_4="40.18342" pt_clust_5="64.21029" pt_clust_6="14000.00000"></scales>
<clustering>
<clus scale="   40.183">  2  4  1 -1</clus>
<clus scale="   64.210">  2  5  1 -1</clus>
<clus scale="  122.200">  2  3  1 -1</clus>
<clus scale="   40.183">  2  3  1 -1</clus>
</clustering>
</event>
<event>
 6    0  0.6851428E+002  0.1175773E+03  0.7546771E-02  0.1247148E+00
         21   -1    0    0  503  502  0.00000000000E+00  0.00000000000E+00  0.10036256293E+03  0.10036256293E+03  0.00000000000E+00 0. -1.
          1   -1    0    0  504    0 -0.00000000000E+00 -0.00000000000E+00 -0.30670212382E+03  0.30670212382E+03  0.00000000000E+00 0. -1.
         21    1    1    2  503  501 -0.23965281870E+02  0.20708890642E+02  0.48417050634E+02  0.57856751368E+02  0.00000000000E+00 0. -1.
         21    1    1    2  504  505 -0.34278701745E+02  0.32111715712E+02 -0.36312748947E+02  0.59370088558E+02  0.00000000000E+00 0. -1.
         21    1    1    2  505  502 -0.56881235297E+01  0.50308428164E+02 -0.14734643404E+02  0.52729521237E+02  0.00000000000E+00 0. -1.
          1    1    1    2  501    0  0.63932107145E+02 -0.10312903452E+03 -0.20370921918E+03  0.23710832559E+03  0.00000000000E+00 0. -1.
<scales pt_clust_3="31.67322" pt_clust_4="37.64168" pt_clust_5="37.64168" pt_clust_6="110.69946"></scales>
<clustering>
<clus scale="   31.673">  1  3  2 -1</clus>
<clus scale="   37.642">  4  5 -1 -1</clus>
<clus scale="  110.699">  2  6  1 -1</clus>
<clus scale="   31.673">  1  3  2 -1</clus>
</clustering>
</event>
<event>
 6    0  0.6851428E+002  0.2693641E+03  0.7546771E-02  0.1101644E+00
         21   -1    0    0  504  502  0.00000000000E+00  0.00000000000E+00  0.37247348929E+03  0.37247348929E+03  0.00000000000E+00 0. -1.
          2   -1    0    0  503    0 -0.00000000000E+00 -0.00000000000E+00 -0.11522373980E+04  0.11522373980E+04  0.00000000000E+00 0. -1.
         21    1    1    2  503  505 -0.33584338024E+02 -0.22166420126E+02 -0.16041559884E+02  0.43319621249E+02  0.00000000000E+00 0.  1.
         21    1    1    2  504  501 -0.16886965772E+03 -0.13354685949E+03  0.20255766893E+03  0.29560333932E+03  0.00000000000E+00 0. -1.
         21    1    1    2  505  502  0.67291334994E+01 -0.34914913510E+02  0.88932990658E+02  0.95777916298E+02  0.00000000000E+00 0.  1.
          2    1    1    2  501    0  0.19572486224E+03  0.19062819312E+03 -0.10552130084E+04  0.10900100104E+04  0.00000000000E+00 0. -1.
<scales pt_clust_3="40.93427" pt_clust_4="14000.00000" pt_clust_5="35.55745" pt_clust_6="269.36415"></scales>
<clustering>
<clus scale="   35.557">  1  5  2 -1</clus>
<clus scale="   40.934">  1  3  2 -1</clus>
<clus scale="  269.364">  2  6  1 -1</clus>
<clus scale="   35.557">  1  3  2 -1</clus>
</clustering>
</event>
<event>
 6    0  0.6851428E+002  0.1061864E+03  0.7546771E-02  0.1267800E+00
         21   -1    0    0  503  502  0.00000000000E+00  0.00000000000E+00  0.44898699124E+03  0.44898699124E+03  0.00000000000E+00 0. -1.
          1   -1    0    0  505    0 -0.00000000000E+00 -0.00000000000E+00 -0.62503380715E+03  0.62503380715E+03  0.00000000000E+00 0.  1.
         21    1    1    2  503  504 -0.54591702878E+01  0.42571199329E+02  0.82810289873E+02  0.93271933943E+02  0.00000000000E+00 0. -1.
         21    1    1    2  504  501  0.29956954070E+02  0.81636336593E+02  0.43231135179E+02  0.97112520297E+02  0.00000000000E+00 0. -1.
         21    1    1    2  505  502  0.66571571412E+02 -0.14166026591E+03  0.26567296240E+03  0.30835292768E+03  0.00000000000E+00 0. -1.
          1    1    1    2  501    0 -0.91069355195E+02  0.17452729987E+02 -0.56776120336E+03  0.57528341648E+03  0.00000000000E+00 0.  1.
<scales pt_clust_3="42.91980" pt_clust_4="14000.00000" pt_clust_5="106.18635" pt_clust_6="92.86695"></scales>
<clustering>
<clus scale="   42.920">  1  3  2 -1</clus>
<clus scale="   92.867">  2  6  1 -1</clus>
<clus scale="  106.186">  1  5  2 -1</clus>
<clus scale="   42.920">  1  3  2 -1</clus>
</clustering>
</event>
<event>
 6    0  0.6851428E+002  0.1605207E+03  0.7546771E-02  0.1188110E+00
          1   -1    0    0  505    0 -0.00000000000E+00  0.00000000000E+00  0.16964239971E+04  0.16964239971E+04  0.00000000000E+00 0. -1.
         21   -1    0    0  503  502  0.00000000000E+00 -0.00000000000E+00 -0.87266070208E+02  0.87266070208E+02  0.00000000000E+00 0.  1.
         21    1    1    2  503  504  0.30534745893E+02  0.21283958993E+01 -0.25379147754E+01  0.30713869624E+02  0.00000000000E+00 0. -1.
         21    1    1    2  504  501 -0.41863748629E+02  0.97467925354E+01  0.25877710361E+02  0.50171997244E+02  0.00000000000E+00 0.  1.
         21    1    1    2  505  502  0.51083466824E+01 -0.17144710946E+03  0.81265956156E+02  0.18980084873E+03  0.00000000000E+00 0.  1.
          1    1    1    2  501    0  0.62206560531E+01  0.15957192103E+03  0.15045521751E+04  0.15130033517E+04  0.00000000000E+00 0. -1.
<scales pt_clust_3="30.60883" pt_clust_4="37.98400" pt_clust_5="160.52073" pt_clust_6="14000.00000"></scales>
<clustering>
<clus scale="   30.609">  2  3  1 -1</clus>
<clus scale="   37.984">  2  4  1 -1</clus>
<clus scale="  160.521">  2  5  1 -1</clus>
<clus scale="   30.609">  2  3  1 -1</clus>
</clustering>
</event>
<event>
 6    0  0.6851428E+002  0.8237877E+02  0.7546771E-02  0.1322433E+00
         21   -1    0    0  505  502  0.00000000000E+00  0.00000000000E+00  0.39660032459E+02  0.39660032459E+02  0.00000000000E+00 0.  1.
          3   -1    0    0  504    0 -0.00000000000E+00 -0.00000000000E+00 -0.21008643678E+04  0.21008643678E+04  0.00000000000E+00 0.  1.
         21    1    1    2  503  501  0.10845836826E+02 -0.45088924324E+02 -0.15078740380E+03  0.15775767626E+03  0.00000000000E+00 0.  1.
         21    1    1    2  504  502 -0.81322090315E+02 -0.40824860872E+01 -0.22004051009E+02  0.84345286334E+02  0.00000000000E+00 0.  1.
         21    1    1    2  505  503  0.88838765117E+02  0.25190951875E+02 -0.43492073340E+03  0.44461551321E+03  0.00000000000E+00 0.  1.
          3    1    1    2  501    0 -0.18362511628E+02  0.23980458536E+02 -0.14534921471E+04  0.14538059244E+04  0.00000000000E+00 0.  1.
<scales pt_clust_3="39.90073" pt_clust_4="82.37877" pt_clust_5="14000.00000" pt_clust_6="30.20338"></scales>
<clustering>
<clus scale="   30.203">  2  6  1 -1</clus>
<clus scale="   39.901">  2  3  1 -1</clus>
<clus scale="   82.379">  1  4  2 -1</clus>
<clus scale="   82.379">  1  3  2 -1</clus>
</clustering>
</event>
<event>
 6    0  0.6851428E+002  0.8149265E+02  0.7546771E-02  0.1324868E+00
          2   -1    0    0  504    0 -0.00000000000E+00  0.00000000000E+00  0.20094851009E+04  0.20094851009E+04  0.00000000000E+00 0. -1.
         21   -1    0    0  505  502  0.00000000000E+00 -0.00000000000E+00 -0.22639467964E+02  0.22639467964E+02  0.00000000000E+00 0. -1.
         21    1    1    2  503  502  0.95584750852E+01  0.66485155787E+02  0.56132526558E+03  0.56532972164E+03  0.00000000000E+00 0. -1.
         21    1    1    2  504  503  0.86722655737E+02 -0.31098471178E+01  0.86916258946E+03  0.87348388485E+03  0.00000000000E+00 0. -1.
         21    1    1    2  505  501 -0.28401675866E+02 -0.10791082651E+02  0.16506893746E-01  0.30382608994E+02  0.00000000000E+00 0. -1.
          2    1    1    2  501    0 -0.67879454956E+02 -0.52584226019E+02  0.55634127103E+03  0.56292835342E+03  0.00000000000E+00 0. -1.
<scales pt_clust_3="63.61683" pt_clust_4="81.49265" pt_clust_5="30.38260" pt_clust_6="14000.00000"></scales>
<clustering>
<clus scale="   30.383">  2  5  1 -1</clus>
<clus scale="   63.617">  2  3  1 -1</clus>
<clus scale="   81.493">  1  4  2 -1</clus>
<clus scale="   30.383">  2  3  1 -1</clus>
</clustering>
</event>
<event>
 6    0  0.6851428E+002  0.9779523E+02  0.7546771E-02  0.1285002E+00
          1   -1    0    0  504    0 -0.00000000000E+00  0.00000000000E+00  0.20964218972E+04  0.20964218972E+04  0.00000000000E+00 0.  1.
         21   -1    0    0  503  502  0.00000000000E+00 -0.00000000000E+00 -0.32521200580E+02  0.32521200580E+02  0.00000000000E+00 0.  1.
         21    1    1    2  503  501 -0.11461472282E+02  0.27893305271E+02  0.40636160551E+02  0.50603353349E+02  0.00000000000E+00 0.  1.
         21    1    1    2  504  505  0.86254965109E+02 -0.26263274400E+02  0.19599108324E+03  0.21573637454E+03  0.00000000000E+00 0.  1.
         21    1    1    2  505  502 -0.10630552648E+03 -0.20500828435E+02  0.15032768261E+03  0.18525539421E+03  0.00000000000E+00 0.  1.
          1    1    1    2  501    0  0.31512033652E+02  0.18870797564E+02  0.16769457702E+04  0.16773479757E+04  0.00000000000E+00 0.  1.
<scales pt_clust_3="30.15629" pt_clust_4="97.79523" pt_clust_5="14000.00000" pt_clust_6="36.76379"></scales>
<clustering>
<clus scale="   30.156">  2  3  1 -1</clus>
<clus scale="   36.764">  1  6  2 -1</clus>
<clus scale="   97.795">  1  4  2 -1</clus>
<clus scale="   30.156">  2  3  1 -1</clus>
</clustering>
</event>
<event>
 6    0  0.6851428E+002  0.8930694E+02  0.7546771E-02  0.1304539E+00
         21   -1    0    0  505  502  0.00000000000E+00  0.00000000000E+00  0.15662071571E+03  0.15662071571E+03  0.00000000000E+00 0. -1.
          1   -1    0    0  504    0 -0.00000000000E+00 -0.00000000000E+00 -0.16648428125E+04  0.16648428125E+04  0.00000000000E+00 0.  1.
         21    1    1    2  503  502 -0.73907601532E+01 -0.71126208548E+02  0.17804296746E+02  0.73692291732E+02  0.00000000000E+00 0. -1.
         21    1    1    2  504  503 -0.27288190482E+02  0.78916062438E+02  0.75764597013E+02  0.11275045193E+03  0.00000000000E+00 0. -1.
         21    1    1    2  505  501 -0.47559980379E+02  0.28148224687E+02 -0.34473919800E+02  0.65136206775E+02  0.00000000000E+00 0. -1.
          1    1    1    2  501    0  0.82238931014E+02 -0.35938078576E+02 -0.15673170707E+04  0.15698845778E+04  0.00000000000E+00 0.  1.
<scales pt_clust_3="66.06733" pt_clust_4="89.30694" pt_clust_5="55.26549" pt_clust_6="14000.00000"></scales>
<clustering>
<clus scale="   55.265">  1  5  2 -1</clus>
<clus scale="   66.067">  1  3  2 -1</clus>
<clus scale="   89.307">  1  4  2 -1</clus>
<clus scale="   55.265">  1  3  2 -1</clus>
</clustering>
</event>
<event>
 6    0  0.6851428E+002  0.1782737E+03  0.7546771E-02  0.1169484E+00
         21   -1    0    0  503  502  0.00000000000E+00  0.00000000000E+00  0.35281512651E+03  0.35281512651E+03  0.00000000000E+00 0.  1.
          1   -1    0    0  505    0 -0.00000000000E+00 -0.00000000000E+00 -0.10472577909E+04  0.10472577909E+04  0.00000000000E+00 0.  1.
         21    1    1    2  503  501 -0.31149554763E+02 -0.19695517013E+01  0.18018622674E+02  0.36039487496E+02  0.00000000000E+00 0.  1.
         21    1    1    2  504  502  0.16016701470E+03 -0.12861515120E+03  0.23124164670E+03  0.30930248768E+03  0.00000000000E+00 0.  1.
         21    1    1    2  505  504 -0.11014122056E+03  0.10242372956E+03 -0.47271719909E+02  0.15765888604E+03  0.00000000000E+00 0.  1.
          1    1    1    2  501    0 -0.18876239377E+02  0.28160973348E+02 -0.89643121388E+03  0.89707205622E+03  0.00000000000E+00 0.  1.
<scales pt_clust_3="31.21176" pt_clust_4="178.27366" pt_clust_5="14000.00000" pt_clust_6="33.91757"></scales>
<clustering>
<clus scale="   31.212">  1  3  2 -1</clus>
<clus scale="   33.918">  2  6  1 -1</clus>
<clus scale="  178.274">  1  4  2 -1</clus>
<clus scale="   31.212">  1  3  2 -1</clus>
</clustering>
</event>
<event>
 6    0  0.6851428E+002  0.7725344E+02  0.7546771E-02  0.1337032E+00
          2   -1    0    0  503    0 -0.00000000000E+00  0.00000000000E+00  0.22416918542E+04  0.22416918542E+04  0.00000000000E+00 0.  1.
         21   -1    0    0  505  502  0.00000000000E+00 -0.00000000000E+00 -0.27562411174E+02  0.27562411174E+02  0.00000000000E+00 0.  1.
         21    1    1    2  503  502 -0.74408653250E+02 -0.88930402141E+01  0.28596657385E+03  0.29562241999E+03  0.00000000000E+00 0.  1.
         21    1    1    2  504  501  0.34617793391E+02  0.11274578204E+03  0.26768806324E+03  0.29251820831E+03  0.00000000000E+00 0.  1.
         21    1    1    2  505  504  0.17848579480E+02 -0.63395011006E+02  0.98669896626E+02  0.11863071993E+03  0.00000000000E+00 0.  1.
          2    1    1    2  501    0  0.21942280379E+02 -0.40457730822E+02  0.15618049093E+04  0.15624829172E+04  0.00000000000E+00 0.  1.
<scales pt_clust_3="70.10151" pt_clust_4="77.25344" pt_clust_5="14000.00000" pt_clust_6="46.02490"></scales>
<clustering>
<clus scale="   46.025">  1  6  2 -1</clus>
<clus scale="   70.102">  1  3  2 -1</clus>
<clus scale="   77.253">  1  4  2 -1</clus>
<clus scale="   77.253">  2  3  1 -1</clus>
</clustering>
</event>
<event>
 6    0  0.6851428E+002  0.3198662E+03  0.7546771E-02  0.1075711E+00
          2   -1    0    0  503    0 -0.00000000000E+00  0.00000000000E+00  0.39428955724E+04  0.39428955724E+04  0.00000000000E+00 0. -1.
         21   -1    0    0  504  502  0.00000000000E+00 -0.00000000000E+00 -0.19477065170E+03  0.19477065170E+03  0.00000000000E+00 0. -1.
         21    1    1    2  503  502  0.67733282846E+02  0.25718080655E+03  0.61754672785E+03  0.67237915341E+03  0.00000000000E+00 0. -1.
         21    1    1    2  504  505  0.74584893125E+02 -0.21603474911E+03 -0.23456801492E+01  0.22855944811E+03  0.00000000000E+00 0. -1.
         21    1    1    2  505  501 -0.17710636312E+02 -0.10620121864E+03  0.72683679836E+01  0.10791290309E+03  0.00000000000E+00 0.  1.
          2    1    1    2  501    0 -0.12460753966E+03  0.65055161202E+02  0.31256555051E+04  0.31288147195E+04  0.00000000000E+00 0. -1.
<scales pt_clust_3="310.15433" pt_clust_4="53.68894" pt_clust_5="53.68894" pt_clust_6="140.56747"></scales>
<clustering>
<clus scale="   53.689">  4  5 -1 -1</clus>
<clus scale="  140.567">  1  6  2 -1</clus>
<clus scale="  310.154">  1  3  2 -1</clus>
<clus scale="  319.866">  2  3  1 -1</clus>
</clustering>
</event>
<event>
 6    0  0.6851428E+002  0.7819658E+02  0.7546771E-02  0.1334249E+00
         21   -1    0    0  503  502  0.00000000000E+00  0.00000000000E+00  0.16873136658E+03  0.16873136658E+03  0.00000000000E+00 0. -1.
          4   -1    0    0  504    0 -0.00000000000E+00 -0.00000000000E+00 -0.71143572035E+03  0.71143572035E+03  0.00000000000E+00 0. -1.
         21    1    1    2  503  505 -0.13361496910E+02 -0.40682603475E+02  0.63000833132E+02  0.76175513129E+02  0.00000000000E+00 0. -1.
         21    1    1    2  504  502 -0.60485652787E+02 -0.41185474772E+01  0.38688426024E+02  0.71918502033E+02  0.00000000000E+00 0. -1.
         21    1    1    2  505  501  0.62359664802E+02  0.96545166297E+02 -0.34668310257E+02  0.12004827640E+03  0.00000000000E+00 0. -1.
          4    1    1    2  501    0  0.11487484895E+02 -0.51744015345E+02 -0.60972530267E+03  0.61202479537E+03  0.00000000000E+00 0. -1.
<scales pt_clust_3="42.82060" pt_clust_4="78.19658" pt_clust_5="14000.00000" pt_clust_6="53.43142"></scales>
<clustering>
<clus scale="   42.821">  1  3  2 -1</clus>
<clus scale="   53.431">  2  6  1 -1</clus>
<clus scale="   78.197">  1  4  2 -1</clus>
<clus scale="   42.821">  1  3  2 -1</clus>
</clustering>
</event>
<event>
 6    0  0.6851428E+002  0.1139151E+03  0.7546771E-02  0.1253487E+00
          4   -1    0    0  505    0 -0.00000000000E+00  0.00000000000E+00  0.15242142964E+03  0.15242142964E+03  0.00000000000E+00 0. -1.
         21   -1    0    0  503  502  0.00000000000E+00 -0.00000000000E+00 -0.27454882582E+03  0.27454882582E+03  0.00000000000E+00 0. -1.
         21    1    1    2  503  501  0.10867315988E+02 -0.30837375089E+02 -0.68263987727E+02  0.75690252209E+02  0.00000000000E+00 0. -1.
         21    1    1    2  504  502  0.24839144140E+02 -0.20030910754E+02 -0.12475135932E+02  0.34261486888E+02  0.00000000000E+00 0. -1.
         21    1    1    2  505  504 -0.96699503846E+02  0.13480965880E+03 -0.10402229288E+03  0.19581898674E+03  0.00000000000E+00 0. -1.
          4    1    1    2  501    0  0.60993043719E+02 -0.83941372961E+02  0.62634020347E+02  0.12119952963E+03  0.00000000000E+00 0. -1.
<scales pt_clust_3="40.75986" pt_clust_4="31.90957" pt_clust_5="113.91509" pt_clust_6="14000.00000"></scales>
<clustering>
<clus scale="   31.910">  2  4  1 -1</clus>
<clus scale="   40.760">  2  3  1 -1</clus>
<clus scale="  113.915">  2  5  1 -1</clus>
<clus scale="   31.910">  2  3  1 -1</clus>
</clustering>
</event>
<event>
 6    0  0.6851428E+002  0.1168598E+03  0.7546771E-02  0.1248369E+00
          2   -1    0    0  505    0 -0.00000000000E+00  0.00000000000E+00  0.71773848400E+03  0.71773848400E+03  0.00000000000E+00 0.  1.
         21   -1    0    0  503  502  0.00000000000E+00 -0.00000000000E+00 -0.15044965413E+03  0.15044965413E+03  0.00000000000E+00 0.  1.
         21    1    1    2  503  504  0.61767121282E+02 -0.13832581353E+03 -0.66673935120E+02  0.16551320667E+03  0.00000000000E+00 0.  1.
         21    1    1    2  504  501 -0.12188650284E+01  0.42889675027E+02  0.90982554602E+02  0.10059242068E+03  0.00000000000E+00 0. -1.
         21    1    1    2  505  502 -0.37216127436E+02  0.69831508750E+02  0.25056815547E+02  0.83001950345E+02  0.00000000000E+00 0.  1.
          2    1    1    2  501    0 -0.23332128818E+02  0.25604629749E+02  0.51792339484E+03  0.51908056043E+03  0.00000000000E+00 0.  1.
<scales pt_clust_3="14000.00000" pt_clust_4="56.58328" pt_clust_5="116.85985" pt_clust_6="34.64080"></scales>
<clustering>
<clus scale="   34.641">  1  6  2 -1</clus>
<clus scale="   56.583">  1  4  2 -1</clus>
<clus scale="  116.860">  1  5  2 -1</clus>
<clus scale="  116.860">  2  3  1 -1</clus>
</clustering>
</event>
<event>
 6    0  0.6851428E+002  0.1179649E+03  0.7546771E-02  0.1246493E+00
         21   -1    0    0  505  502  0.00000000000E+00  0.00000000000E+00  0.70529764476E+03  0.70529764476E+03  0.00000000000E+00 0. -1.
          3   -1    0    0  504    0 -0.00000000000E+00 -0.00000000000E+00 -0.85603217229E+02  0.85603217229E+02  0.00000000000E+00 0.  1.
         21    1    1    2  503  501 -0.80904986247E+02 -0.41867767301E+00  0.16218584465E+03  0.18124580077E+03  0.00000000000E+00 0. -1.
         21    1    1    2  504  502 -0.41982914018E+02 -0.69164402596E+02  0.34639032867E+03  0.35571412602E+03  0.00000000000E+00 0. -1.
         21    1    1    2  505  503 -0.77319449667E+01  0.46992215442E+02  0.11164794471E+03  0.12138086688E+03  0.00000000000E+00 0.  1.
          3    1    1    2  501    0  0.13061984523E+03  0.22590864826E+02 -0.52969050108E+00  0.13256006832E+03  0.00000000000E+00 0.  1.
<scales pt_clust_3="117.96492" pt_clust_4="62.16030" pt_clust_5="47.62406" pt_clust_6="14000.00000"></scales>
<clustering>
<clus scale="   47.624">  1  5  2 -1</clus>
<clus scale="   62.160">  1  4  2 -1</clus>
<clus scale="  117.965">  1  3  2 -1</clus>
<clus scale="   47.624">  1  3  2 -1</clus>
</clustering>
</event>
<event>
 6    0  0.6851428E+002  0.1218254E+03  0.7546771E-02  0.1240116E+00
          2   -1    0    0  504    0 -0.00000000000E+00  0.00000000000E+00  0.19385946766E+04  0.19385946766E+04  0.00000000000E+00 0. -1.
         21   -1    0    0  503  502  0.00000000000E+00 -0.00000000000E+00 -0.29005900483E+02  0.29005900483E+02  0.00000000000E+00 0.  1.
         21    1    1    2  503  501  0.97239603858E+02  0.78475655781E+02  0.16631465775E+03  0.20802532175E+03  0.00000000000E+00 0.  1.
         21    1    1    2  504  505 -0.91953443749E+01  0.47041200433E+02  0.20926223796E+03  0.21468142242E+03  0.00000000000E+00 0.  1.
         21    1    1    2  505  502 -0.44590164323E+02 -0.23204115349E+02  0.19856241790E+03  0.20482613975E+03  0.00000000000E+00 0. -1.
          2    1    1    2  501    0 -0.43454095160E+02 -0.10231274086E+03  0.13354494625E+04  0.13400676932E+04  0.00000000000E+00 0. -1.
<scales pt_clust_3="121.82542" pt_clust_4="47.93150" pt_clust_5="48.97795" pt_clust_6="14000.00000"></scales>
<clustering>
<clus scale="   47.932">  1  4  2 -1</clus>
<clus scale="   48.978">  1  5  2 -1</clus>
<clus scale="  121.825">  2  3  1 -1</clus>
<clus scale="  121.825">  2  3  1 -1</clus>
</clustering>
</event>
<event>
 6    0  0.6851428E+002  0.1022710E+03  0.7546771E-02  0.1275592E+00
          1   -1    0    0  504    0 -0.00000000000E+00  0.00000000000E+00  0.97971707135E+03  0.97971707135E+03  0.00000000000E+00 0. -1.
         21   -1    0    0  503  502  0.00000000000E+00 -0.00000000000E+00 -0.46648799762E+03  0.46648799762E+03  0.00000000000E+00 0. -1.
         21    1    1    2  503  501  0.46844840547E+02 -0.34903948166E+02  0.22816346201E+02  0.62716109074E+02  0.00000000000E+00 0.  1.
         21    1    1    2  504  505 -0.27747525261E+02  0.11846971825E+03 -0.34965654477E+03  0.37022249878E+03  0.00000000000E+00 0. -1.
         21    1    1    2  505  502 -0.43841016692E+02  0.15509471596E+02 -0.77311252186E+02  0.90219777035E+02  0.00000000000E+00 0. -1.
          1    1    1    2  501    0  0.24743701406E+02 -0.99075241681E+02  0.91738052449E+03  0.92304668408E+03  0.00000000000E+00 0. -1.
<scales pt_clust_3="56.10756" pt_clust_4="102.27097" pt_clust_5="46.50353" pt_clust_6="14000.00000"></scales>
<clustering>
<clus scale="   46.504">  2  5  1 -1</clus>
<clus scale="   56.108">  2  3  1 -1</clus>
<clus scale="  102.271">  2  4  1 -1</clus>
<clus scale="   46.504">  2  3  1 -1</clus>
</clustering>
</event>
<event>
 6    0  0.6851428E+002  0.4871076E+03  0.7546771E-02  0.1017200E+00
         21   -1    0    0  505  502  0.00000000000E+00  0.00000000000E+00  0.32632462929E+03  0.32632462929E+03  0.00000000000E+00 0.  1.
          2   -1    0    0  504    0 -0.00000000000E+00 -0.00000000000E+00 -0.12687732504E+04  0.12687732504E+04  0.00000000000E+00 0.  1.
         21    1    1    2  503  502 -0.64891824873E+02  0.38373792510E+02 -0.71896178963E+01  0.75731020675E+02  0.00000000000E+00 0.  1.
         21    1    1    2  504  503 -0.28378916387E+03  0.28564835936E+03 -0.19446132930E+03  0.44715375804E+03  0.00000000000E+00 0.  1.
         21    1    1    2  505  501  0.37991855915E+03 -0.30320382585E+03 -0.19277796118E+03  0.52290918323E+03  0.00000000000E+00 0.  1.
          2    1    1    2  501    0 -0.31237570398E+02 -0.20818326020E+02 -0.54801971278E+03  0.54930391779E+03  0.00000000000E+00 0.  1.
<scales pt_clust_3="34.00650" pt_clust_4="34.00650" pt_clust_5="480.72575" pt_clust_6="37.53916"></scales>
<clustering>
<clus scale="   34.007">  3  4 -1 -1</clus>
<clus scale="   37.539">  2  6  1 -1</clus>
<clus scale="  480.726">  2  5  1 -1</clus>
<clus scale="  487.108">  1  3  2 -1</clus>
</clustering>
</event>
<event>
 6    0  0.6851428E+002  0.1269371E+03  0.7546771E-02  0.1232073E+00
         21   -1    0    0  505  502  0.00000000000E+00  0.00000000000E+00  0.15311066224E+03  0.15311066224E+03  0.00000000000E+00 0. -1.
         -1   -1    0    0    0  501 -0.00000000000E+00 -0.00000000000E+00 -0.12523828953E+04  0.12523828953E+04  0.00000000000E+00 0.  1.
         21    1    1    2  503  501 -0.56966045004E+02  0.54207829103E+02  0.17349550479E+02  0.80527175048E+02  0.00000000000E+00 0. -1.
         21    1    1    2  504  502  0.73505920017E+02 -0.60937893236E+02 -0.85471751971E+01  0.95862408239E+02  0.00000000000E+00 0. -1.
         21    1    1    2  505  503 -0.87119082873E+02  0.10117736675E+03 -0.20409818690E+02  0.13506722342E+03  0.00000000000E+00 0. -1.
         -1    1    1    2    0  504  0.70579207860E+02 -0.94447302613E+02 -0.10876647896E+04  0.10940367508E+04  0.00000000000E+00 0.  1.
<scales pt_clust_3="30.37444" pt_clust_4="95.48061" pt_clust_5="30.37444" pt_clust_6="120.60899"></scales>
<clustering>
<clus scale="   30.374">  3  5 -1 -1</clus>
<clus scale="   95.481">  1  4  2 -1</clus>
<clus scale="  120.609">  2  6  1 -1</clus>
<clus scale="   95.481">  1  3  2 -1</clus>
</clustering>
</event>
<event>
 6    0  0.6851428E+002  0.1396619E+03  0.7546771E-02  0.1213785E+00
         21   -1    0    0  505  502  0.00000000000E+00  0.00000000000E+00  0.46996679631E+03  0.46996679631E+03  0.00000000000E+00 0.  1.
          2   -1    0    0  503    0 -0.00000000000E+00 -0.00000000000E+00 -0.27171323386E+03  0.27171323386E+03  0.00000000000E+00 0. -1.
         21    1    1    2  503  502 -0.10673476836E+02 -0.65320371447E+02  0.63575702900E+02  0.91774419273E+02  0.00000000000E+00 0.  1.
         21    1    1    2  504  501  0.53626989116E+02 -0.12786948934E+02  0.13795235718E+03  0.14856046875E+03  0.00000000000E+00 0. -1.
         21    1    1    2  505  504  0.83006792231E+02  0.38848260236E+02  0.22205865753E+03  0.24022773000E+03  0.00000000000E+00 0.  1.
          2    1    1    2  501    0 -0.12596030451E+03  0.39259060145E+02 -0.22533315515E+03  0.26111741215E+03  0.00000000000E+00 0. -1.
<scales pt_clust_3="66.18666" pt_clust_4="36.38149" pt_clust_5="36.38149" pt_clust_6="131.54885"></scales>
<clustering>
<clus scale="   36.381">  4  5 -1 -1</clus>
<clus scale="   66.187">  1  3  2 -1</clus>
<clus scale="  131.549">  2  6  1 -1</clus>
<clus scale="   66.187">  1  3  2 -1</clus>
</clustering>
</event>
<event>
 6    0  0.6851428E+002  0.1244232E+03  0.7546771E-02  0.1235974E+00
         21   -1    0    0  504  502  0.00000000000E+00  0.00000000000E+00  0.24804486261E+03  0.24804486261E+03  0.00000000000E+00 0. -1.
          1   -1    0    0  503    0 -0.00000000000E+00 -0.00000000000E+00 -0.12701364069E+04  0.12701364069E+04  0.00000000000E+00 0.  1.
         21    1    1    2  503  502  0.30547315973E+02  0.11913620661E+02  0.78577796222E+01  0.33716725390E+02  0.00000000000E+00 0. -1.
         21    1    1    2  504  505 -0.61317107527E+02 -0.25377909305E+02  0.14606565536E+03  0.16043379205E+03  0.00000000000E+00 0. -1.
         21    1    1    2  505  501 -0.76373764146E+02 -0.52616724028E+02  0.40369957084E+02  0.10114941884E+03  0.00000000000E+00 0.  1.
          1    1    1    2  501    0  0.10714355570E+03  0.66081012672E+02 -0.12163849363E+04  0.12228813332E+04  0.00000000000E+00 0.  1.
<scales pt_clust_3="32.78830" pt_clust_4="44.25775" pt_clust_5="14000.00000" pt_clust_6="124.42316"></scales>
<clustering>
<clus scale="   32.788">  1  3  2 -1</clus>
<clus scale="   44.258">  1  4  2 -1</clus>
<clus scale="  124.423">  2  6  1 -1</clus>
<clus scale="   32.788">  1  3  2 -1</clus>
</clustering>
</event>
<event>
 6    0  0.6851428E+002  0.8900125E+02  0.7546771E-02  0.1305288E+00
         -1   -1    0    0    0  501 -0.00000000000E+00  0.00000000000E+00  0.29222920827E+02  0.29222920827E+02  0.00000000000E+00 0.  1.
         21   -1    0    0  503  502  0.00000000000E+00 -0.00000000000E+00 -0.20195103702E+04  0.20195103702E+04  0.00000000000E+00 0. -1.
         21    1    1    2  503  504 -0.92667312650E+02  0.28111621525E+02 -0.58557396495E+03  0.59352705290E+03  0.00000000000E+00 0. -1.
         21    1    1    2  504  501  0.41298062173E+02 -0.73435306270E+02 -0.24631329591E+03  0.26032386346E+03  0.00000000000E+00 0.  1.
         21    1    1    2  505  502  0.52723782454E+02 -0.49902088668E+02 -0.10418263277E+04  0.10443524849E+04  0.00000000000E+00 0. -1.
         -1    1    1    2    0  505 -0.13545319768E+01  0.95225773413E+02 -0.11657386082E+03  0.15052988974E+03  0.00000000000E+00 0.  1.
<scales pt_clust_3="60.86685" pt_clust_4="14000.00000" pt_clust_5="72.59487" pt_clust_6="89.00125"></scales>
<clustering>
<clus scale="   72.595">  2  5  1 -1</clus>
<clus scale="   60.867">  2  3  1 -1</clus>
<clus scale="   89.001">  1  6  2 -1</clus>
<clus scale="   72.595">  2  3  1 -1</clus>
</clustering>
</event>
<event>
 6    0  0.6851428E+002  0.1408925E+03  0.7546771E-02  0.1212133E+00
          1   -1    0    0  503    0 -0.00000000000E+00  0.00000000000E+00  0.58738362061E+03  0.58738362061E+03  0.00000000000E+00 0. -1.
         21   -1    0    0  505  502  0.00000000000E+00 -0.00000000000E+00 -0.15113210909E+04  0.15113210909E+04  0.00000000000E+00 0. -1.
         21    1    1    2  503  504  0.45834442855E+02 -0.12464273118E+03 -0.68608566629E+03  0.69882054068E+03  0.00000000000E+00 0. -1.
         21    1    1    2  504  502  0.56095636033E+02 -0.69190911396E+02 -0.72463443173E+03  0.73008846193E+03  0.00000000000E+00 0. -1.
         21    1    1    2  505  501 -0.25542169679E+02  0.92783158830E+02 -0.56733592319E+02  0.11171310349E+03  0.00000000000E+00 0. -1.
          1    1    1    2  501    0 -0.76387909209E+02  0.10105048375E+03  0.54351622008E+03  0.55808260538E+03  0.00000000000E+00 0. -1.
<scales pt_clust_3="49.73897" pt_clust_4="49.73897" pt_clust_5="96.23470" pt_clust_6="127.13051"></scales>
<clustering>
<clus scale="   49.739">  3  4 -1 -1</clus>
<clus scale="   96.235">  2  5  1 -1</clus>
<clus scale="  127.131">  1  6  2 -1</clus>
<clus scale="   96.235">  2  3  1 -1</clus>
</clustering>
</event>
<event>
 6    0  0.2855765E+003  0.1741257E+03  0.7546771E-02  0.1173612E+00
         21   -1    0    0  505  502  0.00000000000E+00  0.00000000000E+00  0.14929362862E+04  0.14929362862E+04  0.00000000000E+00 0. -1.
          4   -1    0    0  503    0 -0.00000000000E+00 -0.00000000000E+00 -0.87220057561E+03  0.87220057561E+03  0.00000000000E+00 0. -1.
         21    1    1    2  503  502 -0.24088399268E+02 -0.22421116295E+02  0.31595508384E+02  0.45620539072E+02  0.00000000000E+00 0. -1.
         21    1    1    2  504  501 -0.95425122210E+02 -0.18246056942E+02  0.12103637313E+04  0.12142566593E+04  0.00000000000E+00 0. -1.
         21    1    1    2  505  504 -0.52687520760E+02  0.11289382396E+02  0.23003510650E+03  0.23626166684E+03  0.00000000000E+00 0. -1.
          4    1    1    2  501    0  0.17220104224E+03  0.29377790841E+02 -0.85125863557E+03  0.86899799665E+03  0.00000000000E+00 0. -1.
<scales pt_clust_3="32.90832" pt_clust_4="174.12573" pt_clust_5="57.07036" pt_clust_6="14000.00000"></scales>
<clustering>
<clus scale="   32.908">  1  3  2 -1</clus>
<clus scale="   57.070">  1  5  2 -1</clus>
<clus scale="  174.126">  1  4  2 -1</clus>
<clus scale="   32.908">  1  3  2 -1</clus>
</clustering>
</event>
<event>
 6    0  0.6851428E+002  0.1100499E+03  0.7546771E-02  0.1260478E+00
         21   -1    0    0  505  502  0.00000000000E+00  0.00000000000E+00  0.13526716085E+03  0.13526716085E+03  0.00000000000E+00 0. -1.
          2   -1    0    0  504    0 -0.00000000000E+00 -0.00000000000E+00 -0.35958109254E+04  0.35958109254E+04  0.00000000000E+00 0.  1.
         21    1    1    2  503  502  0.80921633224E+02  0.36087257981E+02  0.11076742283E+03  0.14184506644E+03  0.00000000000E+00 0. -1.
         21    1    1    2  504  503 -0.74350560823E+02  0.61636054578E+01 -0.31374001861E+03  0.32248844197E+03  0.00000000000E+00 0.  1.
         21    1    1    2  505  501  0.36377268322E+02  0.15202866259E+02 -0.88769711179E+02  0.97131325616E+02  0.00000000000E+00 0.  1.
          2    1    1    2  501    0 -0.42948340723E+02 -0.57453729698E+02 -0.31688014576E+04  0.31696132522E+04  0.00000000000E+00 0.  1.
<scales pt_clust_3="14000.00000" pt_clust_4="110.04990" pt_clust_5="39.42630" pt_clust_6="71.62696"></scales>
<clustering>
<clus scale="   39.426">  1  5  2 -1</clus>
<clus scale="   71.627">  2  6  1 -1</clus>
<clus scale="  110.050">  2  4  1 -1</clus>
<clus scale="   39.426">  1  3  2 -1</clus>
</clustering>
</event>
<event>
 6    0  0.6851428E+002  0.1193424E+03  0.7546771E-02  0.1244186E+00
         21   -1    0    0  505  502  0.00000000000E+00  0.00000000000E+00  0.20177116726E+03  0.20177116726E+03  0.00000000000E+00 0. -1.
          2   -1    0    0  504    0 -0.00000000000E+00 -0.00000000000E+00 -0.81118745763E+03  0.81118745763E+03  0.00000000000E+00 0. -1.
         21    1    1    2  503  501  0.41119405260E+02  0.10342128049E+03 -0.49150880445E+02  0.12166583660E+03  0.00000000000E+00 0. -1.
         21    1    1    2  504  502 -0.75140845417E+02 -0.31304421899E+02 -0.40769859859E+01  0.81502977216E+02  0.00000000000E+00 0. -1.
         21    1    1    2  505  503  0.82573365365E+01  0.48304672677E+02  0.11625585782E+03  0.12616239332E+03  0.00000000000E+00 0. -1.
          2    1    1    2  501    0  0.25764103620E+02 -0.12042153127E+03 -0.67244428176E+03  0.68362741775E+03  0.00000000000E+00 0. -1.
<scales pt_clust_3="14000.00000" pt_clust_4="71.63146" pt_clust_5="49.00536" pt_clust_6="119.34241"></scales>
<clustering>
<clus scale="   49.005">  1  5  2 -1</clus>
<clus scale="   71.631">  1  4  2 -1</clus>
<clus scale="  119.342">  2  6  1 -1</clus>
<clus scale="   49.005">  1  3  2 -1</clus>
</clustering>
</event>
<event>
 6    0  0.6851428E+002  0.1497830E+03  0.7546771E-02  0.1200740E+00
         21   -1    0    0  504  502  0.00000000000E+00  0.00000000000E+00  0.14086535044E+04  0.14086535044E+04  0.00000000000E+00 0.  1.
         -1   -1    0    0    0  501 -0.00000000000E+00 -0.00000000000E+00 -0.47162757780E+03  0.47162757780E+03  0.00000000000E+00 0.  1.
         21    1    1    2  503  502  0.74315334387E+02 -0.89742880193E+02  0.11017992257E+04  0.11079431786E+04  0.00000000000E+00 0.  1.
         21    1    1    2  504  505 -0.21487165295E+02 -0.59057290228E+02  0.24548170918E+03  0.25339836492E+03  0.00000000000E+00 0.  1.
         21    1    1    2  505  501 -0.54829382481E+02  0.10243617652E+03 -0.10678020499E+02  0.11667669675E+03  0.00000000000E+00 0. -1.
         -1    1    1    2    0  503  0.20012133889E+01  0.46363993900E+02 -0.39957698776E+03  0.40226284185E+03  0.00000000000E+00 0.  1.
<scales pt_clust_3="149.78296" pt_clust_4="60.37240" pt_clust_5="14000.00000" pt_clust_6="46.40716"></scales>
<clustering>
<clus scale="   46.407">  2  6  1 -1</clus>
<clus scale="   60.372">  1  4  2 -1</clus>
<clus scale="  149.783">  1  3  2 -1</clus>
<clus scale="   60.372">  1  3  2 -1</clus>
</clustering>
</event>
<event>
 6    0  0.6851428E+002  0.9295312E+02  0.7546771E-02  0.1295854E+00
         -1   -1    0    0    0  501 -0.00000000000E+00  0.00000000000E+00  0.27245392641E+03  0.27245392641E+03  0.00000000000E+00 0.  1.
         21   -1    0    0  501  502  0.00000000000E+00 -0.00000000000E+00 -0.22626142586E+03  0.22626142586E+03  0.00000000000E+00 0. -1.
         21    1    1    2  503  505 -0.14764273188E+02  0.30004757371E+02 -0.17333912247E+02  0.37666082109E+02  0.00000000000E+00 0. -1.
         21    1    1    2  504  502  0.10815184211E+03 -0.74577387139E+01 -0.99800759288E+02  0.14735206267E+03  0.00000000000E+00 0. -1.
         21    1    1    2  505  504 -0.72297119506E+02 -0.48440391246E+02 -0.48246478619E+02  0.99504108921E+02  0.00000000000E+00 0. -1.
         -1    1    1    2    0  503 -0.21090449421E+02  0.25893372589E+02  0.21157365070E+03  0.21419309856E+03  0.00000000000E+00 0.  1.
<scales pt_clust_3="39.01543" pt_clust_4="92.95312" pt_clust_5="14000.00000" pt_clust_6="33.39572"></scales>
<clustering>
<clus scale="   33.396">  1  6  2 -1</clus>
<clus scale="   39.015">  1  3  2 -1</clus>
<clus scale="   92.953">  2  4  1 -1</clus>
<clus scale="   92.953">  2  3  1 -1</clus>
</clustering>
</event>
<event>
 6    0  0.6851428E+002  0.1457952E+03  0.7546771E-02  0.1205737E+00
         -3   -1    0    0    0  501 -0.00000000000E+00  0.00000000000E+00  0.45776584144E+03  0.45776584144E+03  0.00000000000E+00 0. -1.
         21   -1    0    0  503  502  0.00000000000E+00 -0.00000000000E+00 -0.30784332551E+03  0.30784332551E+03  0.00000000000E+00 0.  1.
         21    1    1    2  503  505  0.28077886713E+02  0.28226419372E+02 -0.43375058125E+01  0.40048875508E+02  0.00000000000E+00 0.  1.
         21    1    1    2  504  502  0.23880477610E+02  0.11117344834E+03 -0.25147999664E+03  0.27599275631E+03  0.00000000000E+00 0.  1.
         21    1    1    2  505  501 -0.19355874779E+02 -0.14873278532E+03  0.26212200537E+03  0.30200006129E+03  0.00000000000E+00 0. -1.
         -3    1    1    2    0  504 -0.32602489544E+02  0.93329176126E+01  0.14361801301E+03  0.14756747384E+03  0.00000000000E+00 0. -1.
<scales pt_clust_3="38.91372" pt_clust_4="145.79521" pt_clust_5="14000.00000" pt_clust_6="33.91203"></scales>
<clustering>
<clus scale="   33.912">  1  6  2 -1</clus>
<clus scale="   38.914">  2  3  1 -1</clus>
<clus scale="  145.795">  2  4  1 -1</clus>
<clus scale="   38.914">  2  3  1 -1</clus>
</clustering>
</event>
<event>
 6    0  0.6851428E+002  0.1094513E+03  0.7546771E-02  0.1261589E+00
         -2   -1    0    0    0  501 -0.00000000000E+00  0.00000000000E+00  0.10265061342E+04  0.10265061342E+04  0.00000000000E+00 0.  1.
         21   -1    0    0  505  502  0.00000000000E+00 -0.00000000000E+00 -0.14543787821E+03  0.14543787821E+03  0.00000000000E+00 0.  1.
         21    1    1    2  503  504 -0.69035712014E+02  0.29613497700E+02  0.31213494909E+03  0.32104690502E+03  0.00000000000E+00 0.  1.
         21    1    1    2  504  501 -0.25834545117E+02 -0.23726292060E+02  0.13583976595E+03  0.14029541215E+03  0.00000000000E+00 0. -1.
         21    1    1    2  505  503  0.97637931617E+02 -0.54765370753E+02 -0.11490359476E+03  0.16042209203E+03  0.00000000000E+00 0.  1.
         -2    1    1    2    0  502 -0.27676744864E+01  0.48878165112E+02  0.54799713574E+03  0.55017960324E+03  0.00000000000E+00 0.  1.
<scales pt_clust_3="109.45127" pt_clust_4="35.07650" pt_clust_5="14000.00000" pt_clust_6="39.00775"></scales>
<clustering>
<clus scale="   35.076">  1  4  2 -1</clus>
<clus scale="   39.008">  1  6  2 -1</clus>
<clus scale="  109.451">  1  3  2 -1</clus>
<clus scale="  109.451">  2  3  1 -1</clus>
</clustering>
</event>
<event>
 6    0  0.6851428E+002  0.9308254E+02  0.7546771E-02  0.1295554E+00
         21   -1    0    0  504  502  0.00000000000E+00  0.00000000000E+00  0.14586575303E+03  0.14586575303E+03  0.00000000000E+00 0. -1.
         -2   -1    0    0    0  501 -0.00000000000E+00 -0.00000000000E+00 -0.44768788930E+03  0.44768788930E+03  0.00000000000E+00 0.  1.
         21    1    1    2  503  502  0.34833012036E+02  0.14623158700E+02  0.28834930793E+02  0.47525032685E+02  0.00000000000E+00 0.  1.
         21    1    1    2  504  501 -0.59000581671E+02 -0.76749648156E+02  0.31189012766E+02  0.10170708750E+03  0.00000000000E+00 0. -1.
         21    1    1    2  505  503  0.91576205036E+02 -0.79412512505E+01 -0.27233628107E+02  0.95869365806E+02  0.00000000000E+00 0. -1.
         -2    1    1    2    0  505 -0.67408635401E+02  0.70067740706E+02 -0.33461245172E+03  0.34845215635E+03  0.00000000000E+00 0.  1.
<scales pt_clust_3="37.77798" pt_clust_4="77.41842" pt_clust_5="93.08254" pt_clust_6="14000.00000"></scales>
<clustering>
<clus scale="   37.778">  1  3  2 -1</clus>
<clus scale="   77.418">  1  4  2 -1</clus>
<clus scale="   93.083">  1  5  2 -1</clus>
<clus scale="   37.778">  1  3  2 -1</clus>
</clustering>
</event>
<event>
 6    0  0.6851428E+002  0.9219828E+02  0.7546771E-02  0.1297614E+00
         21   -1    0    0  505  502  0.00000000000E+00  0.00000000000E+00  0.13359118431E+04  0.13359118431E+04  0.00000000000E+00 0.  1.
          2   -1    0    0  502    0 -0.00000000000E+00 -0.00000000000E+00 -0.84021322326E+02  0.84021322326E+02  0.00000000000E+00 0. -1.
         21    1    1    2  503  501 -0.54365332820E+02 -0.14304179282E+02  0.84492086284E+03  0.84678891315E+03  0.00000000000E+00 0.  1.
         21    1    1    2  504  503 -0.21482460179E+02  0.72481471419E+02  0.38256606398E+03  0.38996391257E+03  0.00000000000E+00 0.  1.
         21    1    1    2  505  504 -0.13748955456E+02 -0.30691280495E+02  0.70967099311E+02  0.78532271450E+02  0.00000000000E+00 0.  1.
          2    1    1    2  501    0  0.89596748455E+02 -0.27486011642E+02 -0.46563505328E+02  0.10464806830E+03  0.00000000000E+00 0. -1.
<scales pt_clust_3="92.19828" pt_clust_4="68.11330" pt_clust_5="33.63017" pt_clust_6="14000.00000"></scales>
<clustering>
<clus scale="   33.630">  1  5  2 -1</clus>
<clus scale="   68.113">  1  4  2 -1</clus>
<clus scale="   92.198">  1  3  2 -1</clus>
<clus scale="   33.630">  1  3  2 -1</clus>
</clustering>
</event>
<event>
 6    0  0.6851428E+002  0.1176603E+03  0.7546771E-02  0.1247007E+00
         21   -1    0    0  503  502  0.00000000000E+00  0.00000000000E+00  0.51665726667E+03  0.51665726667E+03  0.00000000000E+00 0.  1.
          1   -1    0    0  505    0 -0.00000000000E+00 -0.00000000000E+00 -0.10358340285E+04  0.10358340285E+04  0.00000000000E+00 0. -1.
         21    1    1    2  503  501  0.12399917634E+03 -0.32769382575E+02  0.11097500212E+03  0.16960271007E+03  0.00000000000E+00 0. -1.
         21    1    1    2  504  502  0.23054799576E+01  0.49732318479E+02  0.29586468968E+03  0.30002422125E+03  0.00000000000E+00 0.  1.
         21    1    1    2  505  504 -0.10304395905E+03 -0.68379349004E+02  0.28313071060E+02  0.12686773767E+03  0.00000000000E+00 0. -1.
          1    1    1    2  501    0 -0.23260697242E+02  0.51416413100E+02 -0.95432952465E+03  0.95599662614E+03  0.00000000000E+00 0. -1.
<scales pt_clust_3="117.66033" pt_clust_4="49.78573" pt_clust_5="14000.00000" pt_clust_6="56.60235"></scales>
<clustering>
<clus scale="   49.786">  1  4  2 -1</clus>
<clus scale="   56.602">  2  6  1 -1</clus>
<clus scale="  117.660">  1  3  2 -1</clus>
<clus scale="   49.786">  1  3  2 -1</clus>
</clustering>
</event>
<event>
 6    0  0.6851428E+002  0.1726389E+03  0.7546771E-02  0.1175123E+00
         21   -1    0    0  503  502  0.00000000000E+00  0.00000000000E+00  0.83441797286E+03  0.83441797286E+03  0.00000000000E+00 0.  1.
          2   -1    0    0  505    0 -0.00000000000E+00 -0.00000000000E+00 -0.24796131528E+04  0.24796131528E+04  0.00000000000E+00 0. -1.
         21    1    1    2  503  504  0.13301366620E+02 -0.49009758196E+02  0.19317658255E+03  0.19974001802E+03  0.00000000000E+00 0.  1.
         21    1    1    2  504  501 -0.92764040566E+01  0.20572842834E+03  0.56292522254E+03  0.59941224885E+03  0.00000000000E+00 0.  1.
         21    1    1    2  505  502  0.44639781914E+02  0.87983995668E+01  0.44123727645E+02  0.63380007144E+02  0.00000000000E+00 0. -1.
          2    1    1    2  501    0 -0.48664744477E+02 -0.16551706971E+03 -0.24454207127E+04  0.24514988516E+04  0.00000000000E+00 0. -1.
<scales pt_clust_3="52.83752" pt_clust_4="172.63894" pt_clust_5="45.49859" pt_clust_6="14000.00000"></scales>
<clustering>
<clus scale="   45.499">  1  5  2 -1</clus>
<clus scale="   52.838">  1  3  2 -1</clus>
<clus scale="  172.639">  1  4  2 -1</clus>
<clus scale="   45.499">  1  3  2 -1</clus>
</clustering>
</event>
<event>
 6    0  0.6851428E+002  0.8342958E+02  0.7546771E-02  0.1319591E+00
          1   -1    0    0  505    0 -0.00000000000E+00  0.00000000000E+00  0.10713848818E+04  0.10713848818E+04  0.00000000000E+00 0. -1.
         21   -1    0    0  503  502  0.00000000000E+00 -0.00000000000E+00 -0.40373804428E+02  0.40373804428E+02  0.00000000000E+00 0. -1.
         21    1    1    2  503  504  0.46574717514E+02  0.82770833584E+02  0.39497735186E+02  0.10286051861E+03  0.00000000000E+00 0. -1.
         21    1    1    2  504  501 -0.64000093901E+02 -0.41253457192E+02  0.50539922546E+03  0.51110296110E+03  0.00000000000E+00 0. -1.
         21    1    1    2  505  502 -0.17614390373E+02 -0.54038314392E+02  0.16463250970E+03  0.17416736038E+03  0.00000000000E+00 0. -1.
          1    1    1    2  501    0  0.35039766759E+02  0.12520938000E+02  0.32148160704E+03  0.32362784616E+03  0.00000000000E+00 0. -1.
<scales pt_clust_3="14000.00000" pt_clust_4="51.86869" pt_clust_5="83.42958" pt_clust_6="37.20966"></scales>
<clustering>
<clus scale="   37.210">  1  6  2 -1</clus>
<clus scale="   51.869">  1  4  2 -1</clus>
<clus scale="   83.430">  1  5  2 -1</clus>
<clus scale="   83.430">  2  3  1 -1</clus>
</clustering>
</event>
<event>
 6    0  0.6851428E+002  0.1077649E+03  0.7546771E-02  0.1264766E+00
         21   -1    0    0  505  502  0.00000000000E+00  0.00000000000E+00  0.32902873586E+02  0.32902873586E+02  0.00000000000E+00 0.  1.
          2   -1    0    0  503    0 -0.00000000000E+00 -0.00000000000E+00 -0.19997859867E+04  0.19997859867E+04  0.00000000000E+00 0. -1.
         21    1    1    2  503  502  0.96398995183E+01  0.47669075057E+02 -0.30282038729E+03  0.30670092164E+03  0.00000000000E+00 0.  1.
         21    1    1    2  504  501 -0.34020848636E+02  0.64546580455E+02 -0.21057256599E+03  0.22285530000E+03  0.00000000000E+00 0. -1.
         21    1    1    2  505  504  0.91960835646E+01  0.52306418977E+02 -0.15001664451E+02  0.55186767938E+02  0.00000000000E+00 0.  1.
          2    1    1    2  501    0  0.15184865553E+02 -0.16452207449E+03 -0.14384884954E+04  0.14479458707E+04  0.00000000000E+00 0. -1.
<scales pt_clust_3="48.63402" pt_clust_4="107.76488" pt_clust_5="54.11527" pt_clust_6="14000.00000"></scales>
<clustering>
<clus scale="   48.634">  2  3  1 -1</clus>
<clus scale="   54.115">  1  5  2 -1</clus>
<clus scale="  107.765">  1  4  2 -1</clus>
<clus scale="   54.115">  1  3  2 -1</clus>
</clustering>
</event>
<event>
 6    0  0.6851428E+002  0.9400676E+02  0.7546771E-02  0.1293429E+00
          1   -1    0    0  504    0 -0.00000000000E+00  0.00000000000E+00  0.25882821350E+04  0.25882821350E+04  0.00000000000E+00 0.  1.
         21   -1    0    0  505  502  0.00000000000E+00 -0.00000000000E+00 -0.59840597442E+02  0.59840597442E+02  0.00000000000E+00 0. -1.
         21    1    1    2  503  501 -0.23789191186E+02  0.41963636862E+02  0.18442684754E+03  0.19063088556E+03  0.00000000000E+00 0.  1.
         21    1    1    2  504  502  0.14222904537E+01 -0.13078011842E+03  0.11178885971E+03  0.17205293209E+03  0.00000000000E+00 0. -1.
         21    1    1    2  505  503  0.33298295439E+02 -0.33968534395E+01 -0.14727276572E+02  0.36567851559E+02  0.00000000000E+00 0. -1.
          1    1    1    2  501    0 -0.10931394707E+02  0.92213334999E+02  0.22469531069E+04  0.22488710633E+04  0.00000000000E+00 0.  1.
<scales pt_clust_3="46.54570" pt_clust_4="94.00676" pt_clust_5="33.47111" pt_clust_6="14000.00000"></scales>
<clustering>
<clus scale="   33.471">  2  5  1 -1</clus>
<clus scale="   46.546">  2  3  1 -1</clus>
<clus scale="   94.007">  2  4  1 -1</clus>
<clus scale="   33.471">  2  3  1 -1</clus>
</clustering>
</event>
<event>
 6    0  0.6851428E+002  0.9326269E+02  0.7546771E-02  0.1295138E+00
          2   -1    0    0  504    0 -0.00000000000E+00  0.00000000000E+00  0.26989156847E+04  0.26989156847E+04  0.00000000000E+00 0.  1.
         21   -1    0    0  503  502  0.00000000000E+00 -0.00000000000E+00 -0.13018841421E+02  0.13018841421E+02  0.00000000000E+00 0. -1.
         21    1    1    2  503  501 -0.52818913769E+02  0.44335987241E+02  0.13661120558E+03  0.15302986279E+03  0.00000000000E+00 0. -1.
         21    1    1    2  504  505  0.74604224605E+02 -0.37277422940E+01  0.65045017544E+03  0.65472522261E+03  0.00000000000E+00 0.  1.
         21    1    1    2  505  502  0.34057519156E+02 -0.41561593997E+02  0.32966965713E+03  0.33402000470E+03  0.00000000000E+00 0.  1.
          2    1    1    2  501    0 -0.55842829992E+02  0.95334905034E+00  0.15691658051E+04  0.15701594360E+04  0.00000000000E+00 0.  1.
<scales pt_clust_3="74.66050" pt_clust_4="47.40315" pt_clust_5="47.40315" pt_clust_6="55.85097"></scales>
<clustering>
<clus scale="   47.403">  4  5 -1 -1</clus>
<clus scale="   55.851">  1  6  2 -1</clus>
<clus scale="   74.661">  2  3  1 -1</clus>
<clus scale="   74.661">  2  3  1 -1</clus>
</clustering>
</event>
<event>
 6    0  0.6851428E+002  0.1004970E+03  0.7546771E-02  0.1279254E+00
         21   -1    0    0  505  502  0.00000000000E+00  0.00000000000E+00  0.59758424618E+02  0.59758424618E+02  0.00000000000E+00 0. -1.
         -4   -1    0    0    0  501 -0.00000000000E+00 -0.00000000000E+00 -0.65330362483E+03  0.65330362483E+03  0.00000000000E+00 0. -1.
         21    1    1    2  503  502  0.22245404226E+01  0.32585644951E+02 -0.46658465800E+01  0.32993074444E+02  0.00000000000E+00 0. -1.
         21    1    1    2  504  503  0.74486788941E+02 -0.33046470623E+02 -0.91513666538E+02  0.12253612574E+03  0.00000000000E+00 0. -1.
         21    1    1    2  505  501 -0.13349283750E+03  0.51870795765E+01 -0.13219416961E+03  0.18794292202E+03  0.00000000000E+00 0. -1.
         -4    1    1    2    0  504  0.56781508134E+02 -0.47262539048E+01 -0.36517151748E+03  0.36958992725E+03  0.00000000000E+00 0. -1.
<scales pt_clust_3="32.66149" pt_clust_4="100.49698" pt_clust_5="14000.00000" pt_clust_6="56.97629"></scales>
<clustering>
<clus scale="   32.661">  1  3  2 -1</clus>
<clus scale="   56.976">  2  6  1 -1</clus>
<clus scale="  100.497">  1  4  2 -1</clus>
<clus scale="   32.661">  1  3  2 -1</clus>
</clustering>
</event>
<event>
 6    0  0.6851428E+002  0.2868113E+03  0.7546771E-02  0.1092026E+00
         21   -1    0    0  504  502  0.00000000000E+00  0.00000000000E+00  0.46082119429E+03  0.46082119429E+03  0.00000000000E+00 0. -1.
          2   -1    0    0  503    0 -0.00000000000E+00 -0.00000000000E+00 -0.20395339419E+04  0.20395339419E+04  0.00000000000E+00 0.  1.
         21    1    1    2  503  502  0.25146456467E+02 -0.31192246192E+02 -0.86587838536E+02  0.95408355387E+02  0.00000000000E+00 0.  1.
         21    1    1    2  504  505 -0.18020687744E+02  0.28836945708E+03  0.39860626954E+03  0.49230950334E+03  0.00000000000E+00 0. -1.
         21    1    1    2  505  501  0.10435337765E+02 -0.22981177398E+03 -0.12441947947E+04  0.12652837764E+04  0.00000000000E+00 0.  1.
          2    1    1    2  501    0 -0.17561106487E+02 -0.27365436903E+02 -0.64653638395E+03  0.64735350109E+03  0.00000000000E+00 0.  1.
<scales pt_clust_3="40.78796" pt_clust_4="286.81127" pt_clust_5="14000.00000" pt_clust_6="32.51553"></scales>
<clustering>
<clus scale="   32.516">  2  6  1 -1</clus>
<clus scale="   40.788">  2  3  1 -1</clus>
<clus scale="  286.811">  1  4  2 -1</clus>
<clus scale="  286.811">  1  3  2 -1</clus>
</clustering>
</event>
<event>
 6    0  0.6851428E+002  0.3207357E+03  0.7546771E-02  0.1075311E+00
          2   -1    0    0  505    0 -0.00000000000E+00  0.00000000000E+00  0.18247493818E+03  0.18247493818E+03  0.00000000000E+00 0. -1.
         21   -1    0    0  503  502  0.00000000000E+00 -0.00000000000E+00 -0.23033532520E+04  0.23033532520E+04  0.00000000000E+00 0. -1.
         21    1    1    2  503  504 -0.13852306430E+03 -0.12247923660E+03 -0.53933738924E+03  0.57015315677E+03  0.00000000000E+00 0. -1.
         21    1    1    2  504  501 -0.10783522843E+03 -0.13581282747E+03 -0.78514415519E+03  0.80406772415E+03  0.00000000000E+00 0. -1.
         21    1    1    2  505  502 -0.58155159712E+00  0.78821125143E+02 -0.80241684820E+03  0.80627904986E+03  0.00000000000E+00 0. -1.
          2    1    1    2  501    0  0.24693984433E+03  0.17947093893E+03  0.60200788087E+01  0.30532825940E+03  0.00000000000E+00 0. -1.
<scales pt_clust_3="76.48086" pt_clust_4="76.48086" pt_clust_5="78.82327" pt_clust_6="309.91439"></scales>
<clustering>
<clus scale="   78.823">  2  5  1 -1</clus>
<clus scale="   76.481">  3  4 -1 -1</clus>
<clus scale="  309.914">  1  6  2 -1</clus>
<clus scale="   78.823">  2  3  1 -1</clus>
</clustering>
</event>
<event>
 6    0  0.6851428E+002  0.1195249E+03  0.7546771E-02  0.1243883E+00
          2   -1    0    0  505    0 -0.00000000000E+00  0.00000000000E+00  0.40530764551E+04  0.40530764551E+04  0.00000000000E+00 0.  1.
         21   -1    0    0  503  502  0.00000000000E+00 -0.00000000000E+00 -0.65575303424E+02  0.65575303424E+02  0.00000000000E+00 0. -1.
         21    1    1    2  503  501 -0.29893555243E+02 -0.10154391555E+03 -0.12811115022E+02  0.10662511945E+03  0.00000000000E+00 0. -1.
         21    1    1    2  504  502  0.48106665043E+02  0.12416892171E+02  0.23281832807E+03  0.23806050558E+03  0.00000000000E+00 0.  1.
         21    1    1    2  505  504  0.58860138603E+02 -0.10641644229E+02  0.43555559213E+03  0.43964353099E+03  0.00000000000E+00 0.  1.
          2    1    1    2  501    0 -0.77073248403E+02  0.99768667606E+02  0.33319383465E+04  0.33343226025E+04  0.00000000000E+00 0.  1.
<scales pt_clust_3="105.85269" pt_clust_4="30.41922" pt_clust_5="30.41922" pt_clust_6="114.77010"></scales>
<clustering>
<clus scale="   30.419">  4  5 -1 -1</clus>
<clus scale="  105.853">  2  3  1 -1</clus>
<clus scale="  114.770">  1  6  2 -1</clus>
<clus scale="  105.853">  2  3  1 -1</clus>
</clustering>
</event>
<event>
 6    0  0.6851428E+002  0.1075233E+03  0.7546771E-02  0.1265226E+00
         -3   -1    0    0    0  501 -0.00000000000E+00  0.00000000000E+00  0.13196330825E+04  0.13196330825E+04  0.00000000000E+00 0.  1.
         21   -1    0    0  504  502  0.00000000000E+00 -0.00000000000E+00 -0.68058311243E+03  0.68058311243E+03  0.00000000000E+00 0.  1.
         21    1    1    2  503  505 -0.80911233574E+02  0.13855849882E+02  0.20081168853E+02  0.84509559441E+02  0.00000000000E+00 0.  1.
         21    1    1    2  504  503 -0.93461572584E+01  0.62415996181E+02 -0.63616456779E+03  0.63928746628E+03  0.00000000000E+00 0.  1.
         21    1    1    2  505  501 -0.18239376577E+02 -0.27198057125E+02  0.26768875570E+02  0.42296357628E+02  0.00000000000E+00 0.  1.
         -3    1    1    2    0  502  0.10849676741E+03 -0.49073788938E+02  0.12283644935E+04  0.12341228116E+04  0.00000000000E+00 0.  1.
<scales pt_clust_3="107.52328" pt_clust_4="63.08247" pt_clust_5="32.74766" pt_clust_6="14000.00000"></scales>
<clustering>
<clus scale="   32.748">  1  5  2 -1</clus>
<clus scale="   63.082">  2  4  1 -1</clus>
<clus scale="  107.523">  2  3  1 -1</clus>
<clus scale="   63.082">  2  3  1 -1</clus>
</clustering>
</event>
<event>
 6    0  0.6851428E+002  0.2635099E+03  0.7546771E-02  0.1105053E+00
         21   -1    0    0  505  502  0.00000000000E+00  0.00000000000E+00  0.13488649251E+04  0.13488649251E+04  0.00000000000E+00 0. -1.
          2   -1    0    0  504    0 -0.00000000000E+00 -0.00000000000E+00 -0.20331677461E+04  0.20331677461E+04  0.00000000000E+00 0. -1.
         21    1    1    2  503  502 -0.28663307576E+02  0.33116965915E+02  0.29323963849E+03  0.29649250279E+03  0.00000000000E+00 0.  1.
         21    1    1    2  504  503 -0.37537396937E+02  0.51881273494E+02  0.10580362280E+03  0.12367347859E+03  0.00000000000E+00 0. -1.
         21    1    1    2  505  501  0.95399109094E+02  0.17760523138E+03  0.91966525264E+03  0.94150347060E+03  0.00000000000E+00 0. -1.
          2    1    1    2  501    0 -0.29198404581E+02 -0.26260347079E+03 -0.20030113350E+04  0.20203632192E+04  0.00000000000E+00 0. -1.
<scales pt_clust_3="43.79861" pt_clust_4="68.78799" pt_clust_5="14000.00000" pt_clust_6="263.50991"></scales>
<clustering>
<clus scale="   43.799">  1  3  2 -1</clus>
<clus scale="   68.788">  1  4  2 -1</clus>
<clus scale="  263.510">  2  6  1 -1</clus>
<clus scale="   43.799">  1  3  2 -1</clus>
</clustering>
</event>
<event>
 6    0  0.6851428E+002  0.1809315E+03  0.7546771E-02  0.1166905E+00
          2   -1    0    0  505    0 -0.00000000000E+00  0.00000000000E+00  0.23307860341E+04  0.23307860341E+04  0.00000000000E+00 0. -1.
         21   -1    0    0  501  502  0.00000000000E+00 -0.00000000000E+00 -0.54557416750E+02  0.54557416750E+02  0.00000000000E+00 0. -1.
         21    1    1    2  503  502 -0.19772222174E+02 -0.29343835582E+02 -0.38629109973E+01  0.35593869385E+02  0.00000000000E+00 0.  1.
         21    1    1    2  504  503  0.41031465599E+02  0.85933482920E+02  0.11915787460E+03  0.15253440181E+03  0.00000000000E+00 0. -1.
         21    1    1    2  505  504  0.34489181849E+02  0.10760080948E+03  0.20894704132E+03  0.23754221507E+03  0.00000000000E+00 0. -1.
          2    1    1    2  501    0 -0.55748425274E+02 -0.16419045681E+03  0.19519866124E+04  0.19596729646E+04  0.00000000000E+00 0. -1.
<scales pt_clust_3="35.38363" pt_clust_4="33.70584" pt_clust_5="33.70584" pt_clust_6="177.16706"></scales>
<clustering>
<clus scale="   33.706">  4  5 -1 -1</clus>
<clus scale="   35.384">  2  3  1 -1</clus>
<clus scale="  177.167">  1  6  2 -1</clus>
<clus scale="   35.384">  2  3  1 -1</clus>
</clustering>
</event>
<event>
 6    0  0.6851428E+002  0.1194902E+03  0.7546771E-02  0.1243940E+00
          1   -1    0    0  503    0 -0.00000000000E+00  0.00000000000E+00  0.13327335231E+03  0.13327335231E+03  0.00000000000E+00 0.  1.
         21   -1    0    0  504  502  0.00000000000E+00 -0.00000000000E+00 -0.46420380743E+03  0.46420380743E+03  0.00000000000E+00 0.  1.
         21    1    1    2  503  502  0.45165080738E+02  0.30645444527E+02 -0.11707213183E+03  0.12917008880E+03  0.00000000000E+00 0.  1.
         21    1    1    2  504  505 -0.38485626204E+01  0.31643667930E+02 -0.18823247751E+03  0.19091254213E+03  0.00000000000E+00 0.  1.
         21    1    1    2  505  501 -0.10717843101E+02  0.50244227506E+02 -0.11795066598E+03  0.12865346542E+03  0.00000000000E+00 0.  1.
          1    1    1    2  501    0 -0.30598675017E+02 -0.11253333996E+03  0.92324820193E+02  0.14874106339E+03  0.00000000000E+00 0.  1.
<scales pt_clust_3="54.58047" pt_clust_4="30.06213" pt_clust_5="30.06213" pt_clust_6="113.23164"></scales>
<clustering>
<clus scale="   30.062">  4  5 -1 -1</clus>
<clus scale="   54.580">  2  3  1 -1</clus>
<clus scale="  113.232">  1  6  2 -1</clus>
<clus scale="   54.580">  2  3  1 -1</clus>
</clustering>
</event>
<event>
 6    0  0.6851428E+002  0.7838695E+02  0.7546771E-02  0.1333692E+00
         21   -1    0    0  503  502  0.00000000000E+00  0.00000000000E+00  0.59261973846E+02  0.59261973846E+02  0.00000000000E+00 0. -1.
          2   -1    0    0  505    0 -0.00000000000E+00 -0.00000000000E+00 -0.33610896047E+04  0.33610896047E+04  0.00000000000E+00 0.  1.
         21    1    1    2  503  501 -0.37278168906E+02 -0.46953876465E+02 -0.29555512641E+02  0.66842028092E+02  0.00000000000E+00 0. -1.
         21    1    1    2  504  502 -0.40927256294E+02  0.43963955586E+02  0.10025295213E+02  0.60896438670E+02  0.00000000000E+00 0. -1.
         21    1    1    2  505  504  0.10959308063E+03 -0.23145299172E+02 -0.62218132744E+03  0.63218348002E+03  0.00000000000E+00 0.  1.
          2    1    1    2  501    0 -0.31387655431E+02  0.26135220051E+02 -0.26601160860E+04  0.26604296318E+04  0.00000000000E+00 0.  1.
<scales pt_clust_3="59.95305" pt_clust_4="14000.00000" pt_clust_5="78.38695" pt_clust_6="40.84403"></scales>
<clustering>
<clus scale="   40.844">  2  6  1 -1</clus>
<clus scale="   59.953">  1  3  2 -1</clus>
<clus scale="   78.387">  2  5  1 -1</clus>
<clus scale="   59.953">  1  3  2 -1</clus>
</clustering>
</event>
<event>
 6    0  0.6851428E+002  0.1307833E+03  0.7546771E-02  0.1226298E+00
         21   -1    0    0  503  502  0.00000000000E+00  0.00000000000E+00  0.20160024758E+03  0.20160024758E+03  0.00000000000E+00 0.  1.
          1   -1    0    0  504    0 -0.00000000000E+00 -0.00000000000E+00 -0.12641051297E+04  0.12641051297E+04  0.00000000000E+00 0.  1.
         21    1    1    2  503  501 -0.26590704654E+02 -0.13692313925E+03 -0.46397862073E+02  0.14699582729E+03  0.00000000000E+00 0.  1.
         21    1    1    2  504  505 -0.28646967719E+02  0.29564239798E+02  0.21275551678E+00  0.41167199312E+02  0.00000000000E+00 0.  1.
         21    1    1    2  505  502  0.27454608552E+02  0.12498878665E+03  0.98965476193E+02  0.16177180780E+03  0.00000000000E+00 0.  1.
          1    1    1    2  501    0  0.27783063821E+02 -0.17629887200E+02 -0.11152852518E+04  0.11157705429E+04  0.00000000000E+00 0.  1.
<scales pt_clust_3="14000.00000" pt_clust_4="36.77233" pt_clust_5="130.78332" pt_clust_6="32.90458"></scales>
<clustering>
<clus scale="   32.905">  2  6  1 -1</clus>
<clus scale="   36.772">  2  4  1 -1</clus>
<clus scale="  130.783">  1  5  2 -1</clus>
<clus scale="  130.783">  1  3  2 -1</clus>
</clustering>
</event>
<event>
 6    0  0.6851428E+002  0.1450588E+03  0.7546771E-02  0.1206680E+00
         21   -1    0    0  504  502  0.00000000000E+00  0.00000000000E+00  0.13493309726E+04  0.13493309726E+04  0.00000000000E+00 0. -1.
          2   -1    0    0  503    0 -0.00000000000E+00 -0.00000000000E+00 -0.46173107348E+03  0.46173107348E+03  0.00000000000E+00 0. -1.
         21    1    1    2  503  505 -0.22101891971E+02  0.92318748095E+02  0.47073853935E+03  0.48021455341E+03  0.00000000000E+00 0. -1.
         21    1    1    2  504  501  0.54227375650E+01 -0.11363311800E+03  0.34069656006E+03  0.35918802545E+03  0.00000000000E+00 0.  1.
         21    1    1    2  505  502 -0.17240143178E+02  0.64209908000E+02  0.52011845928E+03  0.52435040432E+03  0.00000000000E+00 0. -1.
          2    1    1    2  501    0  0.33919297584E+02 -0.42895538100E+02 -0.44395365955E+03  0.44730906292E+03  0.00000000000E+00 0. -1.
<scales pt_clust_3="30.22219" pt_clust_4="140.49166" pt_clust_5="30.22219" pt_clust_6="54.68588"></scales>
<clustering>
<clus scale="   30.222">  3  5 -1 -1</clus>
<clus scale="   54.686">  2  6  1 -1</clus>
<clus scale="  140.492">  2  4  1 -1</clus>
<clus scale="  145.059">  1  3  2 -1</clus>
</clustering>
</event>
<event>
 6    0  0.6851428E+002  0.1012615E+03  0.7546771E-02  0.1277665E+00
         21   -1    0    0  504  502  0.00000000000E+00  0.00000000000E+00  0.79062733707E+03  0.79062733707E+03  0.00000000000E+00 0. -1.
          2   -1    0    0  503    0 -0.00000000000E+00 -0.00000000000E+00 -0.65171113894E+03  0.65171113894E+03  0.00000000000E+00 0.  1.
         21    1    1    2  503  505  0.82900697690E+02 -0.25064629106E+02  0.70620389426E+02  0.11174972355E+03  0.00000000000E+00 0. -1.
         21    1    1    2  504  501 -0.13878040656E+03  0.15808441885E+02  0.26950526574E+03  0.30355064872E+03  0.00000000000E+00 0. -1.
         21    1    1    2  505  502  0.66188228475E+02 -0.69592094183E+02  0.40469641075E+03  0.41593644471E+03  0.00000000000E+00 0. -1.
          2    1    1    2  501    0 -0.10308519609E+02  0.78848281405E+02 -0.60590586779E+03  0.61110165904E+03  0.00000000000E+00 0.  1.
<scales pt_clust_3="78.98387" pt_clust_4="14000.00000" pt_clust_5="101.26147" pt_clust_6="79.51929"></scales>
<clustering>
<clus scale="   79.519">  2  6  1 -1</clus>
<clus scale="   78.984">  2  3  1 -1</clus>
<clus scale="  101.261">  1  5  2 -1</clus>
<clus scale="  101.261">  1  3  2 -1</clus>
</clustering>
</event>
<event>
 6    0  0.6851428E+002  0.1133600E+03  0.7546771E-02  0.1254471E+00
         21   -1    0    0  504  502  0.00000000000E+00  0.00000000000E+00  0.64465675644E+02  0.64465675644E+02  0.00000000000E+00 0.  1.
          4   -1    0    0  503    0 -0.00000000000E+00 -0.00000000000E+00 -0.44148660499E+03  0.44148660499E+03  0.00000000000E+00 0.  1.
         21    1    1    2  503  502  0.10269454327E+03  0.41603989344E+01 -0.79325477751E+02  0.12983069575E+03  0.00000000000E+00 0.  1.
         21    1    1    2  504  505 -0.22752510515E+01 -0.34735443748E+02  0.18668051690E+02  0.39499670550E+02  0.00000000000E+00 0.  1.
         21    1    1    2  505  501 -0.31338927731E+02  0.33355821075E+02 -0.11885675919E+03  0.12736431366E+03  0.00000000000E+00 0. -1.
          4    1    1    2  501    0 -0.69080364492E+02 -0.27807762619E+01 -0.19750674410E+03  0.20925760067E+03  0.00000000000E+00 0.  1.
<scales pt_clust_3="103.15479" pt_clust_4="34.80988" pt_clust_5="36.85538" pt_clust_6="36.85538"></scales>
<clustering>
<clus scale="   34.810">  1  4  2 -1</clus>
<clus scale="   36.855">  5  6 -1 -1</clus>
<clus scale="  103.155">  1  3  2 -1</clus>
<clus scale="   34.810">  1  3  2 -1</clus>
</clustering>
</event>
<event>
 6    0  0.6851428E+002  0.8379776E+02  0.7546771E-02  0.1318607E+00
         21   -1    0    0  505  502  0.00000000000E+00  0.00000000000E+00  0.12170241080E+04  0.12170241080E+04  0.00000000000E+00 0.  1.
         -4   -1    0    0    0  501 -0.00000000000E+00 -0.00000000000E+00 -0.28337865649E+03  0.28337865649E+03  0.00000000000E+00 0.  1.
         21    1    1    2  503  501  0.31107134066E+02 -0.19394956783E+01 -0.47670379741E+02  0.56955074734E+02  0.00000000000E+00 0. -1.
         21    1    1    2  504  503  0.99595812395E+02  0.17088164377E+02  0.26202209425E+02  0.10439294510E+03  0.00000000000E+00 0. -1.
         21    1    1    2  505  504 -0.24972010588E+02 -0.21153934519E+02  0.11322244934E+04  0.11326973972E+04  0.00000000000E+00 0.  1.
         -4    1    1    2    0  502 -0.10573093587E+03  0.60052658209E+01 -0.17711087156E+03  0.20635734744E+03  0.00000000000E+00 0.  1.
<scales pt_clust_3="31.16754" pt_clust_4="14000.00000" pt_clust_5="32.70452" pt_clust_6="83.79776"></scales>
<clustering>
<clus scale="   31.168">  2  3  1 -1</clus>
<clus scale="   32.705">  1  5  2 -1</clus>
<clus scale="   83.798">  2  6  1 -1</clus>
<clus scale="   32.705">  1  3  2 -1</clus>
</clustering>
</event>
<event>
 6    0  0.6851428E+002  0.1193263E+03  0.7546771E-02  0.1244213E+00
         21   -1    0    0  501  502  0.00000000000E+00  0.00000000000E+00  0.43427415389E+03  0.43427415389E+03  0.00000000000E+00 0. -1.
         -1   -1    0    0    0  501 -0.00000000000E+00 -0.00000000000E+00 -0.77416986444E+02  0.77416986444E+02  0.00000000000E+00 0.  1.
         21    1    1    2  503  502  0.33802696544E+02 -0.10161116532E+02  0.21982027117E+03  0.22263607569E+03  0.00000000000E+00 0. -1.
         21    1    1    2  504  505 -0.17843355684E+02 -0.65710227426E+02  0.63011381251E+02  0.92772051274E+02  0.00000000000E+00 0. -1.
         21    1    1    2  505  503  0.13358476087E+02 -0.38036213443E+02  0.67325355257E+02  0.78472325548E+02  0.00000000000E+00 0. -1.
         -1    1    1    2    0  504 -0.29317816946E+02  0.11390755740E+03  0.67001597689E+01  0.11781068782E+03  0.00000000000E+00 0.  1.
<scales pt_clust_3="35.29689" pt_clust_4="30.32817" pt_clust_5="30.32817" pt_clust_6="112.62872"></scales>
<clustering>
<clus scale="   30.328">  4  5 -1 -1</clus>
<clus scale="   35.297">  1  3  2 -1</clus>
<clus scale="  112.629">  2  6  1 -1</clus>
<clus scale="   35.297">  1  3  2 -1</clus>
</clustering>
</event>
<event>
 6    0  0.6851428E+002  0.1682769E+03  0.7546771E-02  0.1179657E+00
          2   -1    0    0  503    0 -0.00000000000E+00  0.00000000000E+00  0.32025108826E+04  0.32025108826E+04  0.00000000000E+00 0. -1.
         21   -1    0    0  504  502  0.00000000000E+00 -0.00000000000E+00 -0.18594958717E+03  0.18594958717E+03  0.00000000000E+00 0. -1.
         21    1    1    2  503  505  0.32292124860E+02 -0.43521825004E+02  0.16713311562E+04  0.16722095456E+04  0.00000000000E+00 0.  1.
         21    1    1    2  504  501  0.15030307343E+03 -0.77023651053E+02 -0.12194024575E+03  0.20831005794E+03  0.00000000000E+00 0. -1.
         21    1    1    2  505  502 -0.47852741828E+01  0.13618326612E+03  0.33287065275E+03  0.35968271057E+03  0.00000000000E+00 0. -1.
          2    1    1    2  501    0 -0.17780992411E+03 -0.15637790066E+02  0.11342997322E+04  0.11482581557E+04  0.00000000000E+00 0. -1.
<scales pt_clust_3="54.19346" pt_clust_4="168.27691" pt_clust_5="126.36309" pt_clust_6="14000.00000"></scales>
<clustering>
<clus scale="   54.193">  1  3  2 -1</clus>
<clus scale="  126.363">  1  5  2 -1</clus>
<clus scale="  168.277">  2  4  1 -1</clus>
<clus scale="  168.277">  2  3  1 -1</clus>
</clustering>
</event>
<event>
 6    0  0.6851428E+002  0.1544890E+03  0.7546771E-02  0.1195063E+00
          2   -1    0    0  505    0 -0.00000000000E+00  0.00000000000E+00  0.34330567350E+04  0.34330567350E+04  0.00000000000E+00 0.  1.
         21   -1    0    0  501  502  0.00000000000E+00 -0.00000000000E+00 -0.30864995544E+02  0.30864995544E+02  0.00000000000E+00 0.  1.
         21    1    1    2  503  502 -0.10073033660E+02  0.66109171821E+02  0.22575464998E+02  0.70580027103E+02  0.00000000000E+00 0.  1.
         21    1    1    2  504  503 -0.26402454247E+02  0.60369595631E+02  0.68628443067E+03  0.68944027837E+03  0.00000000000E+00 0. -1.
         21    1    1    2  505  504  0.32180014290E+02  0.49826303628E+02  0.50407907847E+03  0.50755682559E+03  0.00000000000E+00 0. -1.
          2    1    1    2  501    0  0.42954736172E+01 -0.17630507108E+03  0.21892527654E+04  0.21963445995E+04  0.00000000000E+00 0.  1.
<scales pt_clust_3="66.87218" pt_clust_4="57.40174" pt_clust_5="57.40174" pt_clust_6="142.14983"></scales>
<clustering>
<clus scale="   57.402">  4  5 -1 -1</clus>
<clus scale="   66.872">  2  3  1 -1</clus>
<clus scale="  142.150">  2  6  1 -1</clus>
<clus scale="   66.872">  2  3  1 -1</clus>
</clustering>
</event>
<event>
 6    0  0.6851428E+002  0.1175214E+03  0.7546771E-02  0.1247243E+00
         21   -1    0    0  505  502  0.00000000000E+00  0.00000000000E+00  0.75216881880E+02  0.75216881880E+02  0.00000000000E+00 0.  1.
          2   -1    0    0  504    0 -0.00000000000E+00 -0.00000000000E+00 -0.81246511594E+03  0.81246511594E+03  0.00000000000E+00 0.  1.
         21    1    1    2  503  502  0.19076671069E+01 -0.43444611099E+02 -0.22693111483E+02  0.49051511049E+02  0.00000000000E+00 0. -1.
         21    1    1    2  504  503  0.23131474416E+02 -0.85525377033E+02 -0.13599533049E+03  0.16230953497E+03  0.00000000000E+00 0.  1.
         21    1    1    2  505  501  0.55123210494E+02  0.57588039154E+02  0.79099937330E+01  0.80109416360E+02  0.00000000000E+00 0.  1.
          2    1    1    2  501    0 -0.80162352017E+02  0.71381948979E+02 -0.58646978581E+03  0.59621153544E+03  0.00000000000E+00 0.  1.
<scales pt_clust_3="33.09321" pt_clust_4="33.09321" pt_clust_5="79.71794" pt_clust_6="107.61058"></scales>
<clustering>
<clus scale="   33.093">  3  4 -1 -1</clus>
<clus scale="   79.718">  1  5  2 -1</clus>
<clus scale="  107.611">  2  6  1 -1</clus>
<clus scale="   79.718">  1  3  2 -1</clus>
</clustering>
</event>
<event>
 6    0  0.6851428E+002  0.7828938E+02  0.7546771E-02  0.1333977E+00
         21   -1    0    0  504  502  0.00000000000E+00  0.00000000000E+00  0.14907791624E+04  0.14907791624E+04  0.00000000000E+00 0.  1.
         -3   -1    0    0    0  501 -0.00000000000E+00 -0.00000000000E+00 -0.85952762039E+02  0.85952762039E+02  0.00000000000E+00 0.  1.
         21    1    1    2  503  501 -0.37413684344E+02  0.23696101215E+02  0.29511607997E+03  0.29842049133E+03  0.00000000000E+00 0.  1.
         21    1    1    2  504  503  0.29505673914E+02  0.10831797011E+02  0.47646928266E+03  0.47750485855E+03  0.00000000000E+00 0.  1.
         21    1    1    2  505  502 -0.55755403147E+02 -0.79473499680E+02  0.69476658927E+03  0.70151644008E+03  0.00000000000E+00 0.  1.
         -3    1    1    2    0  505  0.63663413576E+02  0.44945601453E+02 -0.61525551525E+02  0.99290134498E+02  0.00000000000E+00 0.  1.
<scales pt_clust_3="39.36896" pt_clust_4="31.43108" pt_clust_5="14000.00000" pt_clust_6="78.28938"></scales>
<clustering>
<clus scale="   31.431">  1  4  2 -1</clus>
<clus scale="   39.369">  1  3  2 -1</clus>
<clus scale="   78.289">  2  6  1 -1</clus>
<clus scale="   31.431">  1  3  2 -1</clus>
</clustering>
</event>
<event>
 6    0  0.6851428E+002  0.9935467E+02  0.7546771E-02  0.1281659E+00
          2   -1    0    0  504    0 -0.00000000000E+00  0.00000000000E+00  0.18737657648E+04  0.18737657648E+04  0.00000000000E+00 0.  1.
         21   -1    0    0  505  502  0.00000000000E+00 -0.00000000000E+00 -0.10584838658E+03  0.10584838658E+03  0.00000000000E+00 0. -1.
         21    1    1    2  503  502  0.26103158945E+02  0.36767577307E+02  0.62130728328E+02  0.76768854691E+02  0.00000000000E+00 0.  1.
         21    1    1    2  504  503 -0.18532430301E+02  0.74926617950E+02  0.25446382526E+03  0.26591217990E+03  0.00000000000E+00 0.  1.
         21    1    1    2  505  501  0.44649313448E+02 -0.11871091550E+03 -0.48793289181E+02  0.13589197077E+03  0.00000000000E+00 0. -1.
          2    1    1    2  501    0 -0.52220042092E+02  0.70167202465E+01  0.15001161138E+04  0.15010411460E+04  0.00000000000E+00 0.  1.
<scales pt_clust_3="45.09135" pt_clust_4="14000.00000" pt_clust_5="99.35467" pt_clust_6="52.59122"></scales>
<clustering>
<clus scale="   45.091">  2  3  1 -1</clus>
<clus scale="   52.591">  1  6  2 -1</clus>
<clus scale="   99.355">  2  5  1 -1</clus>
<clus scale="   45.091">  2  3  1 -1</clus>
</clustering>
</event>
<event>
 6    0  0.6851428E+002  0.1682782E+03  0.7546771E-02  0.1179655E+00
         21   -1    0    0  504  502  0.00000000000E+00  0.00000000000E+00  0.42979097382E+03  0.42979097382E+03  0.00000000000E+00 0.  1.
         -1   -1    0    0    0  501 -0.00000000000E+00 -0.00000000000E+00 -0.22798663847E+04  0.22798663847E+04  0.00000000000E+00 0.  1.
         21    1    1    2  503  501  0.74775186364E+02 -0.96212328641E+01  0.14591476951E+03  0.16424072752E+03  0.00000000000E+00 0.  1.
         21    1    1    2  504  503  0.96003937664E+02  0.35940105040E+02  0.23479065802E+03  0.25619348214E+03  0.00000000000E+00 0.  1.
         21    1    1    2  505  502 -0.14277724711E+02 -0.69514150554E+02 -0.21734768635E+02  0.74219072467E+02  0.00000000000E+00 0.  1.
         -1    1    1    2    0  505 -0.15650139932E+03  0.43195278379E+02 -0.22090460698E+04  0.22150040764E+04  0.00000000000E+00 0.  1.
<scales pt_clust_3="38.06468" pt_clust_4="38.06468" pt_clust_5="70.96528" pt_clust_6="162.31898"></scales>
<clustering>
<clus scale="   38.065">  3  4 -1 -1</clus>
<clus scale="   70.965">  1  5  2 -1</clus>
<clus scale="  162.319">  2  6  1 -1</clus>
<clus scale="   70.965">  1  3  2 -1</clus>
</clustering>
</event>
<event>
 6    0  0.6851428E+002  0.9383631E+02  0.7546771E-02  0.1293819E+00
          2   -1    0    0  502    0 -0.00000000000E+00  0.00000000000E+00  0.85801981991E+03  0.85801981991E+03  0.00000000000E+00 0.  1.
         21   -1    0    0  505  502  0.00000000000E+00 -0.00000000000E+00 -0.67892108240E+02  0.67892108240E+02  0.00000000000E+00 0. -1.
         21    1    1    2  503  501 -0.51816445468E+02  0.36952320925E+02  0.13483292686E+03  0.14909841115E+03  0.00000000000E+00 0. -1.
         21    1    1    2  504  503 -0.85992782353E+01  0.44888954408E+02  0.84578709780E+02  0.96138046381E+02  0.00000000000E+00 0. -1.
         21    1    1    2  505  504  0.22247769461E+01 -0.84359371480E+02 -0.20300215223E+02  0.86796036356E+02  0.00000000000E+00 0. -1.
          2    1    1    2  501    0  0.58190946757E+02  0.25180961467E+01  0.59101629026E+03  0.59387943426E+03  0.00000000000E+00 0.  1.
<scales pt_clust_3="34.43769" pt_clust_4="34.43769" pt_clust_5="84.58045" pt_clust_6="58.24540"></scales>
<clustering>
<clus scale="   34.438">  3  4 -1 -1</clus>
<clus scale="   58.245">  1  6  2 -1</clus>
<clus scale="   84.580">  2  5  1 -1</clus>
<clus scale="   84.580">  2  3  1 -1</clus>
</clustering>
</event>
<event>
 6    0  0.6851428E+002  0.1344892E+03  0.7546771E-02  0.1220943E+00
          1   -1    0    0  505    0 -0.00000000000E+00  0.00000000000E+00  0.10570139879E+04  0.10570139879E+04  0.00000000000E+00 0. -1.
         21   -1    0    0  501  502  0.00000000000E+00 -0.00000000000E+00 -0.42308027405E+02  0.42308027405E+02  0.00000000000E+00 0. -1.
         21    1    1    2  503  504  0.84220033971E+02 -0.82100278959E+02  0.41628963419E+03  0.43258586368E+03  0.00000000000E+00 0. -1.
         21    1    1    2  504  502 -0.13483501297E+02 -0.30321099678E+02  0.12485586456E+02  0.35455095008E+02  0.00000000000E+00 0. -1.
         21    1    1    2  505  503 -0.42874753281E+02 -0.52230759110E+02  0.18549166914E+03  0.19741695972E+03  0.00000000000E+00 0. -1.
          1    1    1    2  501    0 -0.27861779392E+02  0.16465213775E+03  0.40043907067E+03  0.43386409685E+03  0.00000000000E+00 0. -1.
<scales pt_clust_3="134.48923" pt_clust_4="33.18394" pt_clust_5="73.78270" pt_clust_6="14000.00000"></scales>
<clustering>
<clus scale="   33.184">  2  4  1 -1</clus>
<clus scale="   73.783">  1  5  2 -1</clus>
<clus scale="  134.489">  1  3  2 -1</clus>
<clus scale="   33.184">  2  3  1 -1</clus>
</clustering>
</event>
<event>
 6    0  0.6851428E+002  0.9191462E+02  0.7546771E-02  0.1298280E+00
          2   -1    0    0  505    0 -0.00000000000E+00  0.00000000000E+00  0.94673606274E+03  0.94673606274E+03  0.00000000000E+00 0.  1.
         21   -1    0    0  504  502  0.00000000000E+00 -0.00000000000E+00 -0.70360080309E+03  0.70360080309E+03  0.00000000000E+00 0. -1.
         21    1    1    2  503  502 -0.28577152858E+01 -0.37262253885E+02 -0.55743158053E+02  0.67111413120E+02  0.00000000000E+00 0. -1.
         21    1    1    2  504  501  0.42057998467E+02  0.62393310794E+02 -0.58660354692E+03  0.59140977479E+03  0.00000000000E+00 0. -1.
         21    1    1    2  505  503 -0.63426807230E+02  0.64160459953E+02 -0.10717081221E+02  0.90853620328E+02  0.00000000000E+00 0.  1.
          2    1    1    2  501    0  0.24226524049E+02 -0.89291516862E+02  0.89619904584E+03  0.90096205759E+03  0.00000000000E+00 0.  1.
<scales pt_clust_3="37.37168" pt_clust_4="48.49138" pt_clust_5="91.91462" pt_clust_6="14000.00000"></scales>
<clustering>
<clus scale="   37.372">  2  3  1 -1</clus>
<clus scale="   48.491">  2  4  1 -1</clus>
<clus scale="   91.915">  2  5  1 -1</clus>
<clus scale="   37.372">  2  3  1 -1</clus>
</clustering>
</event>
<event>
 6    0  0.6851428E+002  0.1760380E+03  0.7546771E-02  0.1171694E+00
          2   -1    0    0  503    0 -0.00000000000E+00  0.00000000000E+00  0.35361799390E+04  0.35361799390E+04  0.00000000000E+00 0.  1.
         21   -1    0    0  504  502  0.00000000000E+00 -0.00000000000E+00 -0.18592269047E+03  0.18592269047E+03  0.00000000000E+00 0.  1.
         21    1    1    2  503  505 -0.31018739098E+02 -0.31777016791E+01  0.12344174107E+04  0.12348111612E+04  0.00000000000E+00 0.  1.
         21    1    1    2  504  501  0.29645999169E+02  0.17358669545E+03 -0.11411566284E+03  0.20984187048E+03  0.00000000000E+00 0.  1.
         21    1    1    2  505  502 -0.14943071022E+03 -0.14948562647E+03  0.19253257687E+04  0.19368930805E+04  0.00000000000E+00 0.  1.
          2    1    1    2  501    0  0.15080345015E+03 -0.20923367295E+02  0.30462973201E+03  0.34055651734E+03  0.00000000000E+00 0.  1.
<scales pt_clust_3="31.18108" pt_clust_4="176.03796" pt_clust_5="14000.00000" pt_clust_6="148.00649"></scales>
<clustering>
<clus scale="   31.181">  1  3  2 -1</clus>
<clus scale="  148.006">  1  6  2 -1</clus>
<clus scale="  176.038">  2  4  1 -1</clus>
<clus scale="  176.038">  2  3  1 -1</clus>
</clustering>
</event>
<event>
 6    0  0.6851428E+002  0.6462555E+02  0.7546771E-02  0.1379386E+00
         21   -1    0    0  503  502  0.00000000000E+00  0.00000000000E+00  0.44328869143E+03  0.44328869143E+03  0.00000000000E+00 0. -1.
          1   -1    0    0  504    0 -0.00000000000E+00 -0.00000000000E+00 -0.21253544467E+03  0.21253544467E+03  0.00000000000E+00 0.  1.
         21    1    1    2  503  501 -0.57070610142E+02 -0.34801805961E+02  0.23941319171E+02  0.71002866166E+02  0.00000000000E+00 0. -1.
         21    1    1    2  504  505 -0.44324147699E+02 -0.26838003054E+02 -0.33659517422E+02  0.61788927732E+02  0.00000000000E+00 0. -1.
         21    1    1    2  505  502  0.30777800283E+02 -0.15226763304E+02  0.36154730722E+03  0.36317431444E+03  0.00000000000E+00 0. -1.
          1    1    1    2  501    0  0.70616957558E+02  0.76866572319E+02 -0.12107586221E+03  0.15985802777E+03  0.00000000000E+00 0.  1.
<scales pt_clust_3="14000.00000" pt_clust_4="48.87115" pt_clust_5="34.33842" pt_clust_6="64.62555"></scales>
<clustering>
<clus scale="   34.338">  1  5  2 -1</clus>
<clus scale="   48.871">  2  4  1 -1</clus>
<clus scale="   64.626">  2  6  1 -1</clus>
<clus scale="   34.338">  1  3  2 -1</clus>
</clustering>
</event>
<event>
 6    0  0.6851428E+002  0.1048823E+03  0.7546771E-02  0.1270352E+00
         21   -1    0    0  505  502  0.00000000000E+00  0.00000000000E+00  0.49246792747E+02  0.49246792747E+02  0.00000000000E+00 0. -1.
          2   -1    0    0  503    0 -0.00000000000E+00 -0.00000000000E+00 -0.30810625808E+04  0.30810625808E+04  0.00000000000E+00 0. -1.
         21    1    1    2  503  502 -0.57991410408E+02 -0.84141635685E+02 -0.15979615015E+03  0.18967769542E+03  0.00000000000E+00 0.  1.
         21    1    1    2  504  501  0.42500864915E+02  0.10509210915E+03 -0.14993454060E+03  0.18796553244E+03  0.00000000000E+00 0. -1.
         21    1    1    2  505  504  0.59637292381E+02  0.58540327049E+01 -0.44641398092E+02  0.74724365271E+02  0.00000000000E+00 0. -1.
          2    1    1    2  501    0 -0.44146746889E+02 -0.26804506168E+02 -0.26774436992E+04  0.26779417804E+04  0.00000000000E+00 0. -1.
<scales pt_clust_3="14000.00000" pt_clust_4="104.88233" pt_clust_5="53.13886" pt_clust_6="51.64704"></scales>
<clustering>
<clus scale="   51.647">  2  6  1 -1</clus>
<clus scale="   53.139">  1  5  2 -1</clus>
<clus scale="  104.882">  2  4  1 -1</clus>
<clus scale="   53.139">  1  3  2 -1</clus>
</clustering>
</event>
<event>
 6    0  0.6851428E+002  0.1309498E+03  0.7546771E-02  0.1226053E+00
          1   -1    0    0  504    0 -0.00000000000E+00  0.00000000000E+00  0.66807412598E+03  0.66807412598E+03  0.00000000000E+00 0. -1.
         21   -1    0    0  505  502  0.00000000000E+00 -0.00000000000E+00 -0.42642210249E+03  0.42642210249E+03  0.00000000000E+00 0.  1.
         21    1    1    2  503  502  0.21038179937E+02  0.79973616703E+02 -0.13886403723E+03  0.16162179686E+03  0.00000000000E+00 0.  1.
         21    1    1    2  504  503 -0.48467760800E+02 -0.13724174696E+03 -0.83453923613E+02  0.16777657259E+03  0.00000000000E+00 0.  1.
         21    1    1    2  505  501  0.57063637227E+02 -0.70690857759E+02 -0.12898631393E+03  0.15776858130E+03  0.00000000000E+00 0.  1.
          1    1    1    2  501    0 -0.29634056365E+02  0.12795898801E+03  0.59295629827E+03  0.60732927771E+03  0.00000000000E+00 0. -1.
<scales pt_clust_3="82.69452" pt_clust_4="130.94983" pt_clust_5="73.98032" pt_clust_6="14000.00000"></scales>
<clustering>
<clus scale="   82.695">  2  3  1 -1</clus>
<clus scale="   73.980">  2  5  1 -1</clus>
<clus scale="  130.950">  2  4  1 -1</clus>
<clus scale="   82.695">  2  3  1 -1</clus>
</clustering>
</event>
<event>
 6    0  0.6851428E+002  0.1125807E+03  0.7546771E-02  0.1255864E+00
          2   -1    0    0  503    0 -0.00000000000E+00  0.00000000000E+00  0.91555578387E+03  0.91555578387E+03  0.00000000000E+00 0.  1.
         21   -1    0    0  505  502  0.00000000000E+00 -0.00000000000E+00 -0.17618888596E+03  0.17618888596E+03  0.00000000000E+00 0.  1.
         21    1    1    2  503  504 -0.11426253236E+03 -0.65493031401E+02  0.61249295388E+03  0.62649252351E+03  0.00000000000E+00 0.  1.
         21    1    1    2  504  502  0.89948543366E+02  0.41517971715E+02 -0.12666786196E+03  0.16080805229E+03  0.00000000000E+00 0.  1.
         21    1    1    2  505  501 -0.64002271655E+02  0.67495135876E+01  0.48686607685E+02  0.80698404437E+02  0.00000000000E+00 0. -1.
          2    1    1    2  501    0  0.88316260649E+02  0.17225546098E+02  0.20485519832E+03  0.22374568959E+03  0.00000000000E+00 0.  1.
<scales pt_clust_3="14000.00000" pt_clust_4="57.62546" pt_clust_5="64.35718" pt_clust_6="112.58066"></scales>
<clustering>
<clus scale="   64.357">  2  5  1 -1</clus>
<clus scale="   57.625">  2  4  1 -1</clus>
<clus scale="  112.581">  2  6  1 -1</clus>
<clus scale="   64.357">  2  3  1 -1</clus>
</clustering>
</event>
<event>
 6    0  0.6851428E+002  0.1265916E+03  0.7546771E-02  0.1232603E+00
          2   -1    0    0  504    0 -0.00000000000E+00  0.00000000000E+00  0.39443230413E+03  0.39443230413E+03  0.00000000000E+00 0. -1.
         21   -1    0    0  505  502  0.00000000000E+00 -0.00000000000E+00 -0.18652184941E+03  0.18652184941E+03  0.00000000000E+00 0.  1.
         21    1    1    2  503  501  0.23539066955E+02 -0.39484231421E+02 -0.16225219085E+02  0.48747819832E+02  0.00000000000E+00 0.  1.
         21    1    1    2  504  502 -0.14401057915E+02 -0.32405071714E+02 -0.45726845461E+02  0.57865564351E+02  0.00000000000E+00 0.  1.
         21    1    1    2  505  503  0.60170510598E+02 -0.19966310238E+02 -0.82281953648E+02  0.10387234370E+03  0.00000000000E+00 0.  1.
          2    1    1    2  501    0 -0.69308519638E+02  0.91855613373E+02  0.35214447291E+03  0.37046842565E+03  0.00000000000E+00 0. -1.
<scales pt_clust_3="48.82014" pt_clust_4="35.46095" pt_clust_5="48.82014" pt_clust_6="113.92036"></scales>
<clustering>
<clus scale="   35.461">  2  4  1 -1</clus>
<clus scale="   48.820">  3  5 -1 -1</clus>
<clus scale="  113.920">  1  6  2 -1</clus>
<clus scale="   35.461">  2  3  1 -1</clus>
</clustering>
</event>
<event>
 6    0  0.6851428E+002  0.1774734E+03  0.7546771E-02  0.1170271E+00
          4   -1    0    0  504    0 -0.00000000000E+00  0.00000000000E+00  0.10478151393E+03  0.10478151393E+03  0.00000000000E+00 0.  1.
         21   -1    0    0  505  502  0.00000000000E+00 -0.00000000000E+00 -0.49868722319E+03  0.49868722319E+03  0.00000000000E+00 0. -1.
         21    1    1    2  503  502  0.25094157540E+02 -0.71556683558E+02 -0.10868639783E+03  0.13252474780E+03  0.00000000000E+00 0. -1.
         21    1    1    2  504  503 -0.15618148455E+02 -0.11118901154E+03 -0.21427255875E+03  0.24190835513E+03  0.00000000000E+00 0. -1.
         21    1    1    2  505  501  0.31099184125E+02  0.14911999278E+03 -0.85077096198E+02  0.17447648494E+03  0.00000000000E+00 0.  1.
          4    1    1    2  501    0 -0.40575193210E+02  0.33625702318E+02  0.14130343514E+02  0.54559149262E+02  0.00000000000E+00 0.  1.
<scales pt_clust_3="40.35931" pt_clust_4="40.35931" pt_clust_5="170.54304" pt_clust_6="52.69757"></scales>
<clustering>
<clus scale="   40.359">  3  4 -1 -1</clus>
<clus scale="   52.698">  1  6  2 -1</clus>
<clus scale="  170.543">  1  5  2 -1</clus>
<clus scale="  177.473">  2  3  1 -1</clus>
</clustering>
</event>
<event>
 6    0  0.6851428E+002  0.8721650E+02  0.7546771E-02  0.1309736E+00
         21   -1    0    0  503  502  0.00000000000E+00  0.00000000000E+00  0.69007417411E+02  0.69007417411E+02  0.00000000000E+00 0. -1.
          2   -1    0    0  505    0 -0.00000000000E+00 -0.00000000000E+00 -0.22147185175E+04  0.22147185175E+04  0.00000000000E+00 0. -1.
         21    1    1    2  503  504  0.70786496936E+02 -0.19364283499E+02 -0.49909019566E+02  0.88750289340E+02  0.00000000000E+00 0. -1.
         21    1    1    2  504  501  0.44302801057E+02  0.11814029894E+03 -0.10022892811E+03  0.16113878008E+03  0.00000000000E+00 0. -1.
         21    1    1    2  505  502 -0.57172321580E+02 -0.34845750349E+02 -0.43469048038E+02  0.79827681976E+02  0.00000000000E+00 0. -1.
          2    1    1    2  501    0 -0.57916976413E+02 -0.63930265094E+02 -0.19521041044E+04  0.19540091835E+04  0.00000000000E+00 0. -1.
<scales pt_clust_3="58.84875" pt_clust_4="14000.00000" pt_clust_5="66.95447" pt_clust_6="87.21650"></scales>
<clustering>
<clus scale="   66.954">  1  5  2 -1</clus>
<clus scale="   58.849">  1  3  2 -1</clus>
<clus scale="   87.216">  2  6  1 -1</clus>
<clus scale="   66.954">  1  3  2 -1</clus>
</clustering>
</event>
<event>
 6    0  0.6851428E+002  0.1844453E+03  0.7546771E-02  0.1163569E+00
         21   -1    0    0  503  502  0.00000000000E+00  0.00000000000E+00  0.97604355600E+03  0.97604355600E+03  0.00000000000E+00 0.  1.
          2   -1    0    0  504    0 -0.00000000000E+00 -0.00000000000E+00 -0.32070403560E+04  0.32070403560E+04  0.00000000000E+00 0.  1.
         21    1    1    2  503  505 -0.11485427123E+03 -0.19754149845E+02  0.72462272741E+03  0.73393448422E+03  0.00000000000E+00 0.  1.
         21    1    1    2  504  502 -0.84164637381E+02  0.29639088288E+02  0.40914093001E+02  0.98163764935E+02  0.00000000000E+00 0.  1.
         21    1    1    2  505  501  0.18608294173E+03  0.15097326967E+03  0.93148268853E+02  0.25709218064E+03  0.00000000000E+00 0.  1.
          2    1    1    2  501    0  0.12935966885E+02 -0.16085820811E+03 -0.30896818892E+04  0.30938934822E+04  0.00000000000E+00 0.  1.
<scales pt_clust_3="184.44526" pt_clust_4="89.23095" pt_clust_5="14000.00000" pt_clust_6="161.29332"></scales>
<clustering>
<clus scale="   89.231">  1  4  2 -1</clus>
<clus scale="  161.293">  2  6  1 -1</clus>
<clus scale="  184.445">  1  3  2 -1</clus>
<clus scale="   89.231">  1  3  2 -1</clus>
</clustering>
</event>
<event>
 6    0  0.6851428E+002  0.7564620E+02  0.7546771E-02  0.1341882E+00
         21   -1    0    0  503  502  0.00000000000E+00  0.00000000000E+00  0.83470301891E+02  0.83470301891E+02  0.00000000000E+00 0.  1.
          2   -1    0    0  504    0 -0.00000000000E+00 -0.00000000000E+00 -0.28640824555E+04  0.28640824555E+04  0.00000000000E+00 0. -1.
         21    1    1    2  503  501  0.22172224522E+02 -0.68384894573E+02 -0.10474704374E+01  0.71897138610E+02  0.00000000000E+00 0.  1.
         21    1    1    2  504  505  0.63863800800E+02  0.45636904498E+02 -0.10888735529E+03  0.13423028066E+03  0.00000000000E+00 0.  1.
         21    1    1    2  505  502 -0.61652577307E+02  0.60743588517E+02 -0.18047281835E+02  0.88411131743E+02  0.00000000000E+00 0.  1.
          2    1    1    2  501    0 -0.24383448015E+02 -0.37995598442E+02 -0.26526300460E+04  0.26530142064E+04  0.00000000000E+00 0. -1.
<scales pt_clust_3="14000.00000" pt_clust_4="55.21418" pt_clust_5="75.64620" pt_clust_6="45.14663"></scales>
<clustering>
<clus scale="   45.147">  2  6  1 -1</clus>
<clus scale="   55.214">  2  4  1 -1</clus>
<clus scale="   75.646">  2  5  1 -1</clus>
<clus scale="   75.646">  1  3  2 -1</clus>
</clustering>
</event>
<event>
 6    0  0.6851428E+002  0.1418666E+03  0.7546771E-02  0.1210839E+00
          2   -1    0    0  503    0 -0.00000000000E+00  0.00000000000E+00  0.14941629665E+04  0.14941629665E+04  0.00000000000E+00 0. -1.
         21   -1    0    0  504  502  0.00000000000E+00 -0.00000000000E+00 -0.91318959284E+02  0.91318959284E+02  0.00000000000E+00 0. -1.
         21    1    1    2  503  502 -0.33348906294E+02 -0.32838664095E+02 -0.11490253361E+02  0.48192876371E+02  0.00000000000E+00 0. -1.
         21    1    1    2  504  505 -0.45506755703E+02  0.55954508090E+02 -0.61583026639E+01  0.72385747782E+02  0.00000000000E+00 0. -1.
         21    1    1    2  505  501 -0.79208524169E+02 -0.83335937728E+01  0.72835895892E+02  0.10792824846E+03  0.00000000000E+00 0. -1.
          2    1    1    2  501    0  0.15806418617E+03 -0.14782250222E+02  0.13476566674E+04  0.13569750532E+04  0.00000000000E+00 0. -1.
<scales pt_clust_3="46.80307" pt_clust_4="75.41215" pt_clust_5="141.86657" pt_clust_6="14000.00000"></scales>
<clustering>
<clus scale="   46.803">  2  3  1 -1</clus>
<clus scale="   75.412">  2  4  1 -1</clus>
<clus scale="  141.867">  2  5  1 -1</clus>
<clus scale="   46.803">  2  3  1 -1</clus>
</clustering>
</event>
<event>
 6    0  0.6851428E+002  0.7451577E+02  0.7546771E-02  0.1345377E+00
         21   -1    0    0  504  502  0.00000000000E+00  0.00000000000E+00  0.52884251964E+03  0.52884251964E+03  0.00000000000E+00 0. -1.
          2   -1    0    0  502    0 -0.00000000000E+00 -0.00000000000E+00 -0.27251654413E+04  0.27251654413E+04  0.00000000000E+00 0. -1.
         21    1    1    2  503  501  0.65131530826E+02 -0.59693361164E+02  0.76680249132E+01  0.88680394005E+02  0.00000000000E+00 0. -1.
         21    1    1    2  504  505 -0.21087956416E+02 -0.49799802458E+02  0.34175038408E+03  0.34600295844E+03  0.00000000000E+00 0. -1.
         21    1    1    2  505  503 -0.83280768638E+01  0.10247710820E+03  0.11733032224E+03  0.15600422779E+03  0.00000000000E+00 0. -1.
          2    1    1    2  501    0 -0.35715497546E+02  0.70160554194E+01 -0.26630716529E+04  0.26633203807E+04  0.00000000000E+00 0. -1.
<scales pt_clust_3="74.51577" pt_clust_4="54.35062" pt_clust_5="14000.00000" pt_clust_6="36.39810"></scales>
<clustering>
<clus scale="   36.398">  2  6  1 -1</clus>
<clus scale="   54.351">  1  4  2 -1</clus>
<clus scale="   74.516">  2  3  1 -1</clus>
<clus scale="   54.351">  1  3  2 -1</clus>
</clustering>
</event>
<event>
 6    0  0.6851428E+002  0.1994323E+03  0.7546771E-02  0.1150219E+00
         21   -1    0    0  503  502  0.00000000000E+00  0.00000000000E+00  0.11977362990E+03  0.11977362990E+03  0.00000000000E+00 0.  1.
         -2   -1    0    0    0  501 -0.00000000000E+00 -0.00000000000E+00 -0.83492097444E+03  0.83492097444E+03  0.00000000000E+00 0.  1.
         21    1    1    2  503  505  0.13416336833E+01  0.17316253687E+03 -0.86626754054E+02  0.19362659599E+03  0.00000000000E+00 0.  1.
         21    1    1    2  504  502 -0.52643715290E+01 -0.45215513886E+02  0.29640945231E+02  0.54320732117E+02  0.00000000000E+00 0.  1.
         21    1    1    2  505  501 -0.62112951961E+01  0.55867885275E+02 -0.66332460710E+02  0.86947088145E+02  0.00000000000E+00 0. -1.
         -2    1    1    2    0  504  0.10134033042E+02 -0.18381490826E+03 -0.59182907501E+03  0.61980018809E+03  0.00000000000E+00 0.  1.
<scales pt_clust_3="30.39703" pt_clust_4="45.52094" pt_clust_5="30.39703" pt_clust_6="192.16350"></scales>
<clustering>
<clus scale="   30.397">  3  5 -1 -1</clus>
<clus scale="   45.521">  1  4  2 -1</clus>
<clus scale="  192.163">  2  6  1 -1</clus>
<clus scale="   45.521">  1  3  2 -1</clus>
</clustering>
</event>
<event>
 6    0  0.6851428E+002  0.1025710E+03  0.7546771E-02  0.1274981E+00
         21   -1    0    0  504  502  0.00000000000E+00  0.00000000000E+00  0.42162681796E+02  0.42162681796E+02  0.00000000000E+00 0.  1.
          2   -1    0    0  505    0 -0.00000000000E+00 -0.00000000000E+00 -0.14535445851E+04  0.14535445851E+04  0.00000000000E+00 0.  1.
         21    1    1    2  503  501  0.73101027267E+02 -0.45848412447E+02 -0.24504878019E+03  0.25979750150E+03  0.00000000000E+00 0.  1.
         21    1    1    2  504  503  0.54751336140E+02  0.57594626692E+02 -0.24918446235E+02  0.83281323211E+02  0.00000000000E+00 0.  1.
         21    1    1    2  505  502 -0.11409839931E+03  0.19668634339E+02 -0.66687483134E+03  0.67685104755E+03  0.00000000000E+00 0. -1.
          2    1    1    2  501    0 -0.13753964098E+02 -0.31414848585E+02 -0.47453984552E+03  0.47577739461E+03  0.00000000000E+00 0.  1.
<scales pt_clust_3="102.57099" pt_clust_4="77.68573" pt_clust_5="14000.00000" pt_clust_6="34.29379"></scales>
<clustering>
<clus scale="   34.294">  2  6  1 -1</clus>
<clus scale="   77.686">  1  4  2 -1</clus>
<clus scale="  102.571">  1  3  2 -1</clus>
<clus scale="   77.686">  1  3  2 -1</clus>
</clustering>
</event>
<event>
 6    0  0.6851428E+002  0.6268908E+02  0.7546771E-02  0.1386881E+00
          2   -1    0    0  504    0 -0.00000000000E+00  0.00000000000E+00  0.64141812984E+03  0.64141812984E+03  0.00000000000E+00 0.  1.
         21   -1    0    0  501  502  0.00000000000E+00 -0.00000000000E+00 -0.35318155122E+03  0.35318155122E+03  0.00000000000E+00 0. -1.
         21    1    1    2  503  502 -0.35139076837E+02 -0.26216865476E+02 -0.32564170320E+03  0.32857966708E+03  0.00000000000E+00 0. -1.
         21    1    1    2  504  505 -0.12499641324E+02  0.34823986206E+02  0.10927087070E+03  0.11536496102E+03  0.00000000000E+00 0.  1.
         21    1    1    2  505  503  0.34700990814E+02  0.77257620886E+02  0.77468644005E+02  0.11477930803E+03  0.00000000000E+00 0. -1.
          2    1    1    2  501    0  0.12937727347E+02 -0.85864741616E+02  0.42713876711E+03  0.43587574492E+03  0.00000000000E+00 0.  1.
<scales pt_clust_3="43.81163" pt_clust_4="36.99934" pt_clust_5="14000.00000" pt_clust_6="62.68908"></scales>
<clustering>
<clus scale="   36.999">  1  4  2 -1</clus>
<clus scale="   43.812">  2  3  1 -1</clus>
<clus scale="   62.689">  1  6  2 -1</clus>
<clus scale="   43.812">  2  3  1 -1</clus>
</clustering>
</event>
<event>
 6    0  0.6851428E+002  0.1038222E+03  0.7546771E-02  0.1272458E+00
         21   -1    0    0  503  502  0.00000000000E+00  0.00000000000E+00  0.15020711936E+03  0.15020711936E+03  0.00000000000E+00 0.  1.
         -2   -1    0    0    0  501 -0.00000000000E+00 -0.00000000000E+00 -0.22521553119E+03  0.22521553119E+03  0.00000000000E+00 0.  1.
         21    1    1    2  503  504 -0.39723373734E+02  0.54621804585E+01  0.29043392376E+01  0.40202201713E+02  0.00000000000E+00 0.  1.
         21    1    1    2  504  501  0.67730236898E+02  0.11162821709E+03  0.49744517315E+02  0.13972387357E+03  0.00000000000E+00 0.  1.
         21    1    1    2  505  502  0.18660933137E+02 -0.29758799577E+02 -0.15495263906E+01  0.35159886374E+02  0.00000000000E+00 0. -1.
         -2    1    1    2    0  505 -0.46667796301E+02 -0.87331597973E+02 -0.12610774199E+03  0.16033668889E+03  0.00000000000E+00 0.  1.
<scales pt_clust_3="36.71422" pt_clust_4="14000.00000" pt_clust_5="35.12573" pt_clust_6="103.82225"></scales>
<clustering>
<clus scale="   35.126">  1  5  2 -1</clus>
<clus scale="   36.714">  1  3  2 -1</clus>
<clus scale="  103.822">  2  6  1 -1</clus>
<clus scale="   35.126">  1  3  2 -1</clus>
</clustering>
</event>
<event>
 6    0  0.6851428E+002  0.9835571E+02  0.7546771E-02  0.1283792E+00
          1   -1    0    0  505    0 -0.00000000000E+00  0.00000000000E+00  0.51767241914E+03  0.51767241914E+03  0.00000000000E+00 0.  1.
         21   -1    0    0  503  502  0.00000000000E+00 -0.00000000000E+00 -0.54682481875E+03  0.54682481875E+03  0.00000000000E+00 0.  1.
         21    1    1    2  503  504  0.40936972741E+02 -0.12987850706E+02 -0.10080289584E+03  0.10957072516E+03  0.00000000000E+00 0. -1.
         21    1    1    2  504  501  0.33821977805E+02 -0.71809175296E+02 -0.36537649773E+03  0.37389900900E+03  0.00000000000E+00 0.  1.
         21    1    1    2  505  502  0.78875421335E+01  0.30739481468E+02 -0.63426710293E+02  0.70923033074E+02  0.00000000000E+00 0. -1.
          1    1    1    2  501    0 -0.82646492679E+02  0.54057544534E+02  0.50045370425E+03  0.51010447065E+03  0.00000000000E+00 0.  1.
<scales pt_clust_3="43.12156" pt_clust_4="98.35571" pt_clust_5="31.73530" pt_clust_6="14000.00000"></scales>
<clustering>
<clus scale="   31.735">  2  5  1 -1</clus>
<clus scale="   43.122">  2  3  1 -1</clus>
<clus scale="   98.356">  2  4  1 -1</clus>
<clus scale="   31.735">  2  3  1 -1</clus>
</clustering>
</event>
<event>
 6    0  0.6851428E+002  0.2146909E+03  0.7546771E-02  0.1137904E+00
         -1   -1    0    0    0  501 -0.00000000000E+00  0.00000000000E+00  0.18393586632E+03  0.18393586632E+03  0.00000000000E+00 0. -1.
         21   -1    0    0  504  502  0.00000000000E+00 -0.00000000000E+00 -0.11944597551E+04  0.11944597551E+04  0.00000000000E+00 0. -1.
         21    1    1    2  503  502 -0.19943794989E+03  0.19727982855E+02 -0.97129714408E+03  0.99175744578E+03  0.00000000000E+00 0. -1.
         21    1    1    2  504  505  0.15172794488E+03  0.61074162789E+01 -0.11283772093E+03  0.18918515020E+03  0.00000000000E+00 0. -1.
         21    1    1    2  505  501  0.60402703233E+02  0.43793841524E+02 -0.22652084956E+02  0.77971174585E+02  0.00000000000E+00 0. -1.
         -1    1    1    2    0  503 -0.12692698222E+02 -0.69629240658E+02  0.96263061171E+02  0.11948185088E+03  0.00000000000E+00 0. -1.
<scales pt_clust_3="201.41184" pt_clust_4="52.10379" pt_clust_5="52.10379" pt_clust_6="70.77666"></scales>
<clustering>
<clus scale="   52.104">  4  5 -1 -1</clus>
<clus scale="   70.777">  1  6  2 -1</clus>
<clus scale="  201.412">  2  3  1 -1</clus>
<clus scale="  201.412">  2  3  1 -1</clus>
</clustering>
</event>
<event>
 6    0  0.6851428E+002  0.1798599E+03  0.7546771E-02  0.1167939E+00
         -1   -1    0    0    0  501 -0.00000000000E+00  0.00000000000E+00  0.36131671509E+03  0.36131671509E+03  0.00000000000E+00 0.  1.
         21   -1    0    0  503  502  0.00000000000E+00 -0.00000000000E+00 -0.55714172819E+03  0.55714172819E+03  0.00000000000E+00 0. -1.
         21    1    1    2  503  504  0.24966682566E+02 -0.35312334511E+02 -0.10048582612E+03  0.10939697189E+03  0.00000000000E+00 0. -1.
         21    1    1    2  504  505 -0.48309518465E+02 -0.13131734420E+03 -0.37377626782E+03  0.39910744524E+03  0.00000000000E+00 0. -1.
         21    1    1    2  505  501 -0.59470931752E+02  0.81681801496E+02 -0.65600498077E+01  0.10125088974E+03  0.00000000000E+00 0.  1.
         -1    1    1    2    0  502  0.82813767650E+02  0.84947877213E+02  0.28499713065E+03  0.30870313641E+03  0.00000000000E+00 0.  1.
<scales pt_clust_3="40.63328" pt_clust_4="40.63328" pt_clust_5="101.03815" pt_clust_6="164.34019"></scales>
<clustering>
<clus scale="   40.633">  3  4 -1 -1</clus>
<clus scale="  101.038">  1  5  2 -1</clus>
<clus scale="  164.340">  1  6  2 -1</clus>
<clus scale="  179.860">  2  3  1 -1</clus>
</clustering>
</event>
<event>
 6    0  0.6851428E+002  0.1374050E+03  0.7546771E-02  0.1216864E+00
         21   -1    0    0  504  502  0.00000000000E+00  0.00000000000E+00  0.14805594244E+03  0.14805594244E+03  0.00000000000E+00 0.  1.
          2   -1    0    0  502    0 -0.00000000000E+00 -0.00000000000E+00 -0.84191160696E+03  0.84191160696E+03  0.00000000000E+00 0. -1.
         21    1    1    2  503  501  0.50400409443E+02 -0.88542838662E+02 -0.13692737906E+03  0.17067261844E+03  0.00000000000E+00 0.  1.
         21    1    1    2  504  505 -0.20696110017E+02  0.58572860200E+02  0.25053951675E+02  0.66983650367E+02  0.00000000000E+00 0.  1.
         21    1    1    2  505  503 -0.52722003334E+02  0.61561772851E+02  0.65155741812E+02  0.10399390464E+03  0.00000000000E+00 0.  1.
          2    1    1    2  501    0  0.23017703909E+02 -0.31591794390E+02 -0.64713797895E+03  0.64831737595E+03  0.00000000000E+00 0. -1.
<scales pt_clust_3="132.69194" pt_clust_4="31.23569" pt_clust_5="31.23569" pt_clust_6="39.08780"></scales>
<clustering>
<clus scale="   31.236">  4  5 -1 -1</clus>
<clus scale="   39.088">  2  6  1 -1</clus>
<clus scale="  132.692">  2  3  1 -1</clus>
<clus scale="  137.405">  1  3  2 -1</clus>
</clustering>
</event>
<event>
 6    0  0.6851428E+002  0.2041758E+03  0.7546771E-02  0.1146263E+00
         21   -1    0    0  503  502  0.00000000000E+00  0.00000000000E+00  0.83673620406E+03  0.83673620406E+03  0.00000000000E+00 0.  1.
          3   -1    0    0  504    0 -0.00000000000E+00 -0.00000000000E+00 -0.40630994482E+03  0.40630994482E+03  0.00000000000E+00 0. -1.
         21    1    1    2  503  505 -0.18862234636E+03 -0.19617056248E+01  0.39525354859E+03  0.43795845180E+03  0.00000000000E+00 0.  1.
         21    1    1    2  504  502 -0.33169193598E+01  0.39179356283E+02  0.60429674831E+02  0.72095558206E+02  0.00000000000E+00 0.  1.
         21    1    1    2  505  501  0.21894286072E+03 -0.74089407973E+02  0.31442951261E+03  0.39024496799E+03  0.00000000000E+00 0.  1.
          3    1    1    2  501    0 -0.27003594998E+02  0.36871757315E+02 -0.33968647680E+03  0.34274717089E+03  0.00000000000E+00 0. -1.
<scales pt_clust_3="204.17584" pt_clust_4="39.31951" pt_clust_5="14000.00000" pt_clust_6="45.76922"></scales>
<clustering>
<clus scale="   39.320">  1  4  2 -1</clus>
<clus scale="   45.769">  2  6  1 -1</clus>
<clus scale="  204.176">  1  3  2 -1</clus>
<clus scale="   39.320">  1  3  2 -1</clus>
</clustering>
</event>
<event>
 6    0  0.6851428E+002  0.8589768E+02  0.7546771E-02  0.1313102E+00
          2   -1    0    0  505    0 -0.00000000000E+00  0.00000000000E+00  0.21341428891E+04  0.21341428891E+04  0.00000000000E+00 0.  1.
         21   -1    0    0  504  502  0.00000000000E+00 -0.00000000000E+00 -0.68542232064E+02  0.68542232064E+02  0.00000000000E+00 0.  1.
         21    1    1    2  503  501  0.16545750807E+02 -0.41823065552E+02  0.40530364113E+02  0.60544538127E+02  0.00000000000E+00 0.  1.
         21    1    1    2  504  503  0.35732188466E+02 -0.70420059588E+02  0.11402600811E+02  0.79785922255E+02  0.00000000000E+00 0.  1.
         21    1    1    2  505  502 -0.45497564803E+02  0.37609874205E+02  0.13205135276E+02  0.60488896819E+02  0.00000000000E+00 0.  1.
          2    1    1    2  501    0 -0.67803744701E+01  0.74633250934E+02  0.20004625568E+04  0.20018657640E+04  0.00000000000E+00 0.  1.
<scales pt_clust_3="30.78667" pt_clust_4="30.78667" pt_clust_5="59.02992" pt_clust_6="75.59305"></scales>
<clustering>
<clus scale="   30.787">  3  4 -1 -1</clus>
<clus scale="   59.030">  2  5  1 -1</clus>
<clus scale="   75.593">  1  6  2 -1</clus>
<clus scale="   59.030">  2  3  1 -1</clus>
</clustering>
</event>
<event>
 6    0  0.6851428E+002  0.2361627E+03  0.7546771E-02  0.1122376E+00
          2   -1    0    0  505    0 -0.00000000000E+00  0.00000000000E+00  0.21708367168E+04  0.21708367168E+04  0.00000000000E+00 0. -1.
         21   -1    0    0  503  502  0.00000000000E+00 -0.00000000000E+00 -0.79978054946E+03  0.79978054946E+03  0.00000000000E+00 0. -1.
         21    1    1    2  503  504 -0.11658949581E+03 -0.27938280946E+02 -0.14899824270E+03  0.19124365193E+03  0.00000000000E+00 0.  1.
         21    1    1    2  504  501 -0.13068354879E+03  0.13387057402E+03 -0.54855397239E+03  0.57957827869E+03  0.00000000000E+00 0. -1.
         21    1    1    2  505  502  0.72106580683E+02  0.53334517234E+02 -0.24791136896E+02  0.93051223393E+02  0.00000000000E+00 0.  1.
          2    1    1    2  501    0  0.17516646392E+03 -0.15926681031E+03  0.20933995194E+04  0.21067441123E+04  0.00000000000E+00 0. -1.
<scales pt_clust_3="101.25512" pt_clust_4="14000.00000" pt_clust_5="89.68796" pt_clust_6="236.16267"></scales>
<clustering>
<clus scale="   89.688">  2  5  1 -1</clus>
<clus scale="  101.255">  2  3  1 -1</clus>
<clus scale="  236.163">  1  6  2 -1</clus>
<clus scale="   89.688">  2  3  1 -1</clus>
</clustering>
</event>
<event>
 6    0  0.6851428E+002  0.8090917E+03  0.7546771E-02  0.9546950E-01
          1   -1    0    0  505    0 -0.00000000000E+00  0.00000000000E+00  0.14131502251E+04  0.14131502251E+04  0.00000000000E+00 0.  1.
         21   -1    0    0  504  502  0.00000000000E+00 -0.00000000000E+00 -0.61150004610E+03  0.61150004610E+03  0.00000000000E+00 0. -1.
         21    1    1    2  503  501 -0.42263277561E+03  0.29260384795E+03  0.10106461780E+03  0.52387931037E+03  0.00000000000E+00 0. -1.
         21    1    1    2  504  503 -0.14638918209E+03  0.21076948188E+03  0.12193957869E+03  0.28411763053E+03  0.00000000000E+00 0. -1.
         21    1    1    2  505  502  0.32808999216E+02  0.11344197530E+03 -0.99672659037E+02  0.15453203923E+03  0.00000000000E+00 0. -1.
          1    1    1    2  501    0  0.53621295849E+03 -0.61681530513E+03  0.67831864159E+03  0.10621212911E+04  0.00000000000E+00 0.  1.
<scales pt_clust_3="113.83567" pt_clust_4="113.83567" pt_clust_5="118.09112" pt_clust_6="792.88828"></scales>
<clustering>
<clus scale="  113.836">  3  4 -1 -1</clus>
<clus scale="  118.091">  2  5  1 -1</clus>
<clus scale="  792.888">  1  6  2 -1</clus>
<clus scale="  118.091">  2  3  1 -1</clus>
</clustering>
</event>
<event>
 6    0  0.6851428E+002  0.1868973E+03  0.7546771E-02  0.1161290E+00
         -1   -1    0    0    0  501 -0.00000000000E+00  0.00000000000E+00  0.62108705577E+03  0.62108705577E+03  0.00000000000E+00 0. -1.
         21   -1    0    0  505  502  0.00000000000E+00 -0.00000000000E+00 -0.18222862138E+03  0.18222862138E+03  0.00000000000E+00 0.  1.
         21    1    1    2  503  504 -0.57077511101E+02  0.91874005405E+01  0.93870921749E+02  0.11024518381E+03  0.00000000000E+00 0.  1.
         21    1    1    2  504  502  0.14365904188E+02 -0.34459839133E+02 -0.57878004827E+01  0.37780396380E+02  0.00000000000E+00 0.  1.
         21    1    1    2  505  501  0.15070347736E+03 -0.24787938808E+02 -0.10427442001E+03  0.18493008048E+03  0.00000000000E+00 0.  1.
         -1    1    1    2    0  503 -0.10799187045E+03  0.50060377400E+02  0.45504973314E+03  0.47036001648E+03  0.00000000000E+00 0. -1.
<scales pt_clust_3="49.27912" pt_clust_4="37.33443" pt_clust_5="172.91704" pt_clust_6="49.27912"></scales>
<clustering>
<clus scale="   37.334">  2  4  1 -1</clus>
<clus scale="   49.279">  3  6 -1 -1</clus>
<clus scale="  172.917">  2  5  1 -1</clus>
<clus scale="   37.334">  2  3  1 -1</clus>
</clustering>
</event>
<event>
 6    0  0.6851428E+002  0.1029433E+03  0.7546771E-02  0.1274226E+00
         21   -1    0    0  503  502  0.00000000000E+00  0.00000000000E+00  0.48151608759E+02  0.48151608759E+02  0.00000000000E+00 0.  1.
         -1   -1    0    0    0  501 -0.00000000000E+00 -0.00000000000E+00 -0.90028711692E+03  0.90028711692E+03  0.00000000000E+00 0.  1.
         21    1    1    2  503  501 -0.41222157648E+02 -0.65393081943E+02 -0.37800843652E+02  0.86048969941E+02  0.00000000000E+00 0.  1.
         21    1    1    2  504  505  0.53654139122E+02  0.10366186419E+02 -0.52487648101E+02  0.75770559381E+02  0.00000000000E+00 0. -1.
         21    1    1    2  505  502  0.33683340651E+02 -0.30756134093E+02 -0.48213558540E+02  0.66370584214E+02  0.00000000000E+00 0.  1.
         -1    1    1    2    0  504 -0.46115322125E+02  0.85783029616E+02 -0.71363345787E+03  0.72024861214E+03  0.00000000000E+00 0.  1.
<scales pt_clust_3="77.30150" pt_clust_4="41.05957" pt_clust_5="41.05957" pt_clust_6="92.61500"></scales>
<clustering>
<clus scale="   41.060">  4  5 -1 -1</clus>
<clus scale="   77.301">  1  3  2 -1</clus>
<clus scale="   92.615">  2  6  1 -1</clus>
<clus scale="   77.301">  1  3  2 -1</clus>
</clustering>
</event>
<event>
 6    0  0.6851428E+002  0.8149644E+02  0.7546771E-02  0.1324858E+00
          2   -1    0    0  505    0 -0.00000000000E+00  0.00000000000E+00  0.21568175636E+04  0.21568175636E+04  0.00000000000E+00 0. -1.
         21   -1    0    0  503  502  0.00000000000E+00 -0.00000000000E+00 -0.40487431159E+02  0.40487431159E+02  0.00000000000E+00 0. -1.
         21    1    1    2  503  504  0.53245223718E+02 -0.15208686091E+02  0.38571913836E+02  0.67484446492E+02  0.00000000000E+00 0. -1.
         21    1    1    2  504  501  0.34660441342E+02 -0.65995102533E+02  0.56325890933E+02  0.93430753726E+02  0.00000000000E+00 0.  1.
         21    1    1    2  505  502 -0.48108513195E+02  0.32397575777E+02  0.11389074403E+03  0.12780897282E+03  0.00000000000E+00 0. -1.
          2    1    1    2  501    0 -0.39797151865E+02  0.48806212848E+02  0.19075415837E+04  0.19085808217E+04  0.00000000000E+00 0. -1.
<scales pt_clust_3="43.66511" pt_clust_4="43.66511" pt_clust_5="58.00028" pt_clust_6="63.83590"></scales>
<clustering>
<clus scale="   43.665">  3  4 -1 -1</clus>
<clus scale="   58.000">  2  5  1 -1</clus>
<clus scale="   63.836">  1  6  2 -1</clus>
<clus scale="   58.000">  2  3  1 -1</clus>
</clustering>
</event>
<event>
 6    0  0.6851428E+002  0.1191732E+03  0.7546771E-02  0.1244467E+00
         21   -1    0    0  505  502  0.00000000000E+00  0.00000000000E+00  0.10387463993E+04  0.10387463993E+04  0.00000000000E+00 0. -1.
         -1   -1    0    0    0  501 -0.00000000000E+00 -0.00000000000E+00 -0.53965677483E+03  0.53965677483E+03  0.00000000000E+00 0.  1.
         21    1    1    2  503  501 -0.10285772595E+03 -0.80684635792E+01  0.10358692894E+03  0.14620213315E+03  0.00000000000E+00 0. -1.
         21    1    1    2  504  502  0.85785935844E+02 -0.65095546075E+02  0.86045532262E+03  0.86716781486E+03  0.00000000000E+00 0. -1.
         21    1    1    2  505  503  0.34115806298E+02 -0.17085622505E+02  0.37948815868E+02  0.53813746957E+02  0.00000000000E+00 0.  1.
         -1    1    1    2    0  504 -0.17044016193E+02  0.90249632160E+02 -0.50290144293E+03  0.51121947918E+03  0.00000000000E+00 0.  1.
<scales pt_clust_3="119.17319" pt_clust_4="14000.00000" pt_clust_5="38.15504" pt_clust_6="91.74819"></scales>
<clustering>
<clus scale="   38.155">  1  5  2 -1</clus>
<clus scale="   91.748">  2  6  1 -1</clus>
<clus scale="  119.173">  2  3  1 -1</clus>
<clus scale="   38.155">  1  3  2 -1</clus>
</clustering>
</event>
<event>
 6    0  0.6851428E+002  0.1072903E+03  0.7546771E-02  0.1265672E+00
          2   -1    0    0  503    0 -0.00000000000E+00  0.00000000000E+00  0.16769229657E+04  0.16769229657E+04  0.00000000000E+00 0. -1.
         21   -1    0    0  504  502  0.00000000000E+00 -0.00000000000E+00 -0.45074031613E+03  0.45074031613E+03  0.00000000000E+00 0. -1.
         21    1    1    2  503  505  0.11401047446E+03  0.10293188727E+03  0.10030298340E+04  0.10147227255E+04  0.00000000000E+00 0. -1.
         21    1    1    2  504  501 -0.78727107402E+02  0.21686145431E+02  0.38815225451E+02  0.90414977025E+02  0.00000000000E+00 0.  1.
         21    1    1    2  505  502 -0.54111407430E+02 -0.92337085251E+02 -0.41166651106E+03  0.42535102922E+03  0.00000000000E+00 0. -1.
          2    1    1    2  501    0  0.18828040375E+02 -0.32280947454E+02  0.59600410118E+03  0.59717455011E+03  0.00000000000E+00 0. -1.
<scales pt_clust_3="107.29025" pt_clust_4="80.07616" pt_clust_5="14000.00000" pt_clust_6="37.37051"></scales>
<clustering>
<clus scale="   37.371">  1  6  2 -1</clus>
<clus scale="   80.076">  1  4  2 -1</clus>
<clus scale="  107.290">  1  3  2 -1</clus>
<clus scale="  107.290">  2  3  1 -1</clus>
</clustering>
</event>
<event>
 6    0  0.6851428E+002  0.1525677E+03  0.7546771E-02  0.1197353E+00
         21   -1    0    0  504  502  0.00000000000E+00  0.00000000000E+00  0.42160606384E+03  0.42160606384E+03  0.00000000000E+00 0.  1.
          2   -1    0    0  505    0 -0.00000000000E+00 -0.00000000000E+00 -0.10290295712E+04  0.10290295712E+04  0.00000000000E+00 0. -1.
         21    1    1    2  503  502  0.62617690893E+02  0.61834181825E+02  0.13898138481E+03  0.16450005039E+03  0.00000000000E+00 0.  1.
         21    1    1    2  504  501  0.39262063377E+02 -0.57105679176E+02  0.14410795851E+03  0.15990519666E+03  0.00000000000E+00 0. -1.
         21    1    1    2  505  503 -0.34398855059E+02  0.13488056017E+03  0.68235871664E+02  0.15502316254E+03  0.00000000000E+00 0.  1.
          2    1    1    2  501    0 -0.67480899211E+02 -0.13960906282E+03 -0.95874872236E+03  0.97120722547E+03  0.00000000000E+00 0. -1.
<scales pt_clust_3="89.76886" pt_clust_4="69.30056" pt_clust_5="152.56772" pt_clust_6="14000.00000"></scales>
<clustering>
<clus scale="   69.301">  1  4  2 -1</clus>
<clus scale="   89.769">  1  3  2 -1</clus>
<clus scale="  152.568">  1  5  2 -1</clus>
<clus scale="   69.301">  1  3  2 -1</clus>
</clustering>
</event>
<event>
 6    0  0.6851428E+002  0.9681727E+02  0.7546771E-02  0.1287135E+00
          1   -1    0    0  505    0 -0.00000000000E+00  0.00000000000E+00  0.17899220706E+04  0.17899220706E+04  0.00000000000E+00 0.  1.
         21   -1    0    0  503  502  0.00000000000E+00 -0.00000000000E+00 -0.40287537854E+02  0.40287537854E+02  0.00000000000E+00 0.  1.
         21    1    1    2  503  504  0.12096777938E+03 -0.13974987955E+02  0.17040875437E+03  0.20944604915E+03  0.00000000000E+00 0. -1.
         21    1    1    2  504  501 -0.34640562366E+02  0.30421689834E+02  0.21522736719E+03  0.22010967121E+03  0.00000000000E+00 0.  1.
         21    1    1    2  505  502 -0.75166963311E+02 -0.53756053457E+02  0.10039768637E+03  0.13645321940E+03  0.00000000000E+00 0.  1.
          1    1    1    2  501    0 -0.11160253702E+02  0.37309351578E+02  0.12636007248E+04  0.12642006687E+04  0.00000000000E+00 0.  1.
<scales pt_clust_3="96.81727" pt_clust_4="60.36901" pt_clust_5="14000.00000" pt_clust_6="38.94277"></scales>
<clustering>
<clus scale="   38.943">  1  6  2 -1</clus>
<clus scale="   60.369">  1  4  2 -1</clus>
<clus scale="   96.817">  1  3  2 -1</clus>
<clus scale="   96.817">  2  3  1 -1</clus>
</clustering>
</event>
<event>
 6    0  0.6851428E+002  0.1000379E+03  0.7546771E-02  0.1280216E+00
         21   -1    0    0  501  502  0.00000000000E+00  0.00000000000E+00  0.12264676756E+03  0.12264676756E+03  0.00000000000E+00 0. -1.
          1   -1    0    0  505    0 -0.00000000000E+00 -0.00000000000E+00 -0.28479330572E+04  0.28479330572E+04  0.00000000000E+00 0.  1.
         21    1    1    2  503  504 -0.57408142180E+02 -0.11994339171E+01 -0.13467382716E+03  0.14640414322E+03  0.00000000000E+00 0.  1.
         21    1    1    2  504  502  0.10169557424E+03 -0.37532774435E+02  0.90218042603E+02  0.14103189068E+03  0.00000000000E+00 0. -1.
         21    1    1    2  505  503 -0.26536764094E+01  0.62163287881E+02 -0.17222085183E+04  0.17233320913E+04  0.00000000000E+00 0.  1.
          1    1    1    2  501    0 -0.41633755649E+02 -0.23431079529E+02 -0.95862198669E+03  0.95981169948E+03  0.00000000000E+00 0.  1.
<scales pt_clust_3="14000.00000" pt_clust_4="100.03795" pt_clust_5="57.57297" pt_clust_6="47.77431"></scales>
<clustering>
<clus scale="   47.774">  2  6  1 -1</clus>
<clus scale="   57.573">  2  5  1 -1</clus>
<clus scale="  100.038">  1  4  2 -1</clus>
<clus scale="  100.038">  1  3  2 -1</clus>
</clustering>
</event>
<event>
 6    0  0.6851428E+002  0.4053168E+03  0.7546771E-02  0.1041954E+00
         21   -1    0    0  501  502  0.00000000000E+00  0.00000000000E+00  0.24739000594E+03  0.24739000594E+03  0.00000000000E+00 0. -1.
          1   -1    0    0  503    0 -0.00000000000E+00 -0.00000000000E+00 -0.62665154228E+03  0.62665154228E+03  0.00000000000E+00 0. -1.
         21    1    1    2  503  504  0.21055145059E+02 -0.31526582057E+02 -0.60245662422E+02  0.71181348332E+02  0.00000000000E+00 0.  1.
         21    1    1    2  504  505  0.26438967624E+03 -0.76396966944E+02 -0.17159510717E+03  0.32431971612E+03  0.00000000000E+00 0. -1.
         21    1    1    2  505  502  0.61434281128E+02 -0.42891797620E+02 -0.77297823027E+01  0.75323480636E+02  0.00000000000E+00 0. -1.
          1    1    1    2  501    0 -0.34687910242E+03  0.15081534662E+03 -0.13969098445E+03  0.40321700313E+03  0.00000000000E+00 0. -1.
<scales pt_clust_3="36.26060" pt_clust_4="47.74089" pt_clust_5="47.74089" pt_clust_6="378.24645"></scales>
<clustering>
<clus scale="   36.261">  3  4 -1 -1</clus>
<clus scale="   47.741">  3  5 -1 -1</clus>
<clus scale="  378.246">  1  6  2 -1</clus>
<clus scale="  378.246">  1  3  2 -1</clus>
</clustering>
</event>
<event>
 6    0  0.6851428E+002  0.9931279E+02  0.7546771E-02  0.1281748E+00
         21   -1    0    0  505  502  0.00000000000E+00  0.00000000000E+00  0.59979111669E+03  0.59979111669E+03  0.00000000000E+00 0.  1.
          2   -1    0    0  504    0 -0.00000000000E+00 -0.00000000000E+00 -0.85082912000E+03  0.85082912000E+03  0.00000000000E+00 0.  1.
         21    1    1    2  503  502  0.85846171127E+01  0.39116193356E+02  0.30521555432E+03  0.30783162091E+03  0.00000000000E+00 0.  1.
         21    1    1    2  504  503 -0.63041499558E+02  0.27512475018E+02  0.21918921998E+03  0.22972827668E+03  0.00000000000E+00 0.  1.
         21    1    1    2  505  501 -0.36511222949E+02 -0.25784132592E+02  0.58251184536E+02  0.73424051881E+02  0.00000000000E+00 0.  1.
          2    1    1    2  501    0  0.90968105394E+02 -0.40844535782E+02 -0.83369396215E+03  0.83963628723E+03  0.00000000000E+00 0.  1.
<scales pt_clust_3="40.04713" pt_clust_4="99.31279" pt_clust_5="38.53757" pt_clust_6="14000.00000"></scales>
<clustering>
<clus scale="   40.047">  1  3  2 -1</clus>
<clus scale="   38.538">  1  5  2 -1</clus>
<clus scale="   99.313">  1  4  2 -1</clus>
<clus scale="   40.047">  1  3  2 -1</clus>
</clustering>
</event>
<event>
 6    0  0.6851428E+002  0.9469672E+02  0.7546771E-02  0.1291861E+00
          2   -1    0    0  504    0 -0.00000000000E+00  0.00000000000E+00  0.96665078176E+03  0.96665078176E+03  0.00000000000E+00 0.  1.
         21   -1    0    0  503  502  0.00000000000E+00 -0.00000000000E+00 -0.10348065597E+03  0.10348065597E+03  0.00000000000E+00 0.  1.
         21    1    1    2  503  505  0.10409054231E+02  0.80439519695E+02  0.10547655826E+02  0.81793140190E+02  0.00000000000E+00 0.  1.
         21    1    1    2  504  502  0.26996200473E+02  0.20227043565E+02 -0.40233555619E+02  0.52503972508E+02  0.00000000000E+00 0.  1.
         21    1    1    2  505  501 -0.66794017422E+02 -0.83508769746E+02  0.11425802041E+03  0.15649297305E+03  0.00000000000E+00 0. -1.
          2    1    1    2  501    0  0.29388762717E+02 -0.17157793514E+02  0.77859800517E+03  0.77934135198E+03  0.00000000000E+00 0.  1.
<scales pt_clust_3="94.69672" pt_clust_4="33.73319" pt_clust_5="14000.00000" pt_clust_6="34.11666"></scales>
<clustering>
<clus scale="   33.733">  2  4  1 -1</clus>
<clus scale="   34.117">  1  6  2 -1</clus>
<clus scale="   94.697">  2  3  1 -1</clus>
<clus scale="   33.733">  2  3  1 -1</clus>
</clustering>
</event>
<event>
 6    0  0.6851428E+002  0.7352073E+02  0.7546771E-02  0.1348514E+00
         21   -1    0    0  501  502  0.00000000000E+00  0.00000000000E+00  0.10572563405E+04  0.10572563405E+04  0.00000000000E+00 0.  1.
          2   -1    0    0  505    0 -0.00000000000E+00 -0.00000000000E+00 -0.87880762899E+03  0.87880762899E+03  0.00000000000E+00 0. -1.
         21    1    1    2  503  504 -0.90848017540E+02 -0.47206574696E+02 -0.62102860878E+02  0.11974384458E+03  0.00000000000E+00 0. -1.
         21    1    1    2  504  502  0.72501691173E+02 -0.11345446920E+02  0.10058903372E+04  0.10085636246E+04  0.00000000000E+00 0.  1.
         21    1    1    2  505  503 -0.23023123043E+02  0.37212429788E+02 -0.28535311339E+01  0.43851701966E+02  0.00000000000E+00 0. -1.
          2    1    1    2  501    0  0.41369449410E+02  0.21339591827E+02 -0.76248523363E+03  0.76390479840E+03  0.00000000000E+00 0. -1.
<scales pt_clust_3="14000.00000" pt_clust_4="73.52073" pt_clust_5="43.75876" pt_clust_6="58.38091"></scales>
<clustering>
<clus scale="   43.759">  2  5  1 -1</clus>
<clus scale="   58.381">  2  6  1 -1</clus>
<clus scale="   73.521">  1  4  2 -1</clus>
<clus scale="   73.521">  1  3  2 -1</clus>
</clustering>
</event>
<event>
 6    0  0.6851428E+002  0.1259631E+03  0.7546771E-02  0.1233572E+00
         21   -1    0    0  501  502  0.00000000000E+00  0.00000000000E+00  0.41089106621E+03  0.41089106621E+03  0.00000000000E+00 0.  1.
          1   -1    0    0  504    0 -0.00000000000E+00 -0.00000000000E+00 -0.10843337726E+04  0.10843337726E+04  0.00000000000E+00 0.  1.
         21    1    1    2  503  505 -0.49960030862E+00  0.83751046364E+02  0.29762857341E+03  0.30918805779E+03  0.00000000000E+00 0.  1.
         21    1    1    2  504  503 -0.16250425890E+02 -0.10838385507E+03 -0.74185650572E+02  0.13234291493E+03  0.00000000000E+00 0.  1.
         21    1    1    2  505  502 -0.27870116279E+02  0.51370591551E+02  0.66713012168E+02  0.88692203999E+02  0.00000000000E+00 0. -1.
          1    1    1    2  501    0  0.44620142477E+02 -0.26737782848E+02 -0.96359864140E+03  0.96500166209E+03  0.00000000000E+00 0.  1.
<scales pt_clust_3="14000.00000" pt_clust_4="125.96307" pt_clust_5="54.39805" pt_clust_6="52.01794"></scales>
<clustering>
<clus scale="   52.018">  2  6  1 -1</clus>
<clus scale="   54.398">  1  5  2 -1</clus>
<clus scale="  125.963">  2  4  1 -1</clus>
<clus scale="   54.398">  1  3  2 -1</clus>
</clustering>
</event>
<event>
 6    0  0.6851428E+002  0.1506248E+03  0.7546771E-02  0.1199707E+00
         -1   -1    0    0    0  501 -0.00000000000E+00  0.00000000000E+00  0.61638365531E+03  0.61638365531E+03  0.00000000000E+00 0. -1.
         21   -1    0    0  503  502  0.00000000000E+00 -0.00000000000E+00 -0.13702534331E+03  0.13702534331E+03  0.00000000000E+00 0. -1.
         21    1    1    2  503  501  0.76136261483E+02  0.53977506772E+02 -0.61600809573E+02  0.11182558424E+03  0.00000000000E+00 0. -1.
         21    1    1    2  504  502 -0.73971280762E+02  0.71684589214E+02  0.91339325624E+02  0.13767099591E+03  0.00000000000E+00 0. -1.
         21    1    1    2  505  504 -0.62983744201E+02  0.43366832411E+00  0.49809672955E+02  0.80300333882E+02  0.00000000000E+00 0.  1.
         -1    1    1    2    0  505  0.60818763480E+02 -0.12609576431E+03  0.39981012300E+03  0.42361208460E+03  0.00000000000E+00 0. -1.
<scales pt_clust_3="93.32900" pt_clust_4="47.11765" pt_clust_5="47.11765" pt_clust_6="138.04737"></scales>
<clustering>
<clus scale="   47.118">  4  5 -1 -1</clus>
<clus scale="   93.329">  2  3  1 -1</clus>
<clus scale="  138.047">  1  6  2 -1</clus>
<clus scale="   93.329">  2  3  1 -1</clus>
</clustering>
</event>
<event>
 6    0  0.6851428E+002  0.9737435E+02  0.7546771E-02  0.1285916E+00
         21   -1    0    0  505  502  0.00000000000E+00  0.00000000000E+00  0.10257578375E+03  0.10257578375E+03  0.00000000000E+00 0.  1.
          2   -1    0    0  503    0 -0.00000000000E+00 -0.00000000000E+00 -0.78628641414E+03  0.78628641414E+03  0.00000000000E+00 0. -1.
         21    1    1    2  503  502 -0.70611416464E+02  0.60053471433E+02 -0.14446695693E+02  0.93814170479E+02  0.00000000000E+00 0.  1.
         21    1    1    2  504  501 -0.10520481552E+02 -0.47052951312E+02 -0.40900964838E+02  0.63226178787E+02  0.00000000000E+00 0.  1.
         21    1    1    2  505  504 -0.71429445336E+01  0.29656860824E+02  0.43341352324E+02  0.53000225205E+02  0.00000000000E+00 0.  1.
          2    1    1    2  501    0  0.88274842550E+02 -0.42657380944E+02 -0.67170432219E+03  0.67882162342E+03  0.00000000000E+00 0. -1.
<scales pt_clust_3="97.37435" pt_clust_4="42.68546" pt_clust_5="30.50493" pt_clust_6="14000.00000"></scales>
<clustering>
<clus scale="   30.505">  1  5  2 -1</clus>
<clus scale="   42.685">  1  4  2 -1</clus>
<clus scale="   97.374">  1  3  2 -1</clus>
<clus scale="   30.505">  1  3  2 -1</clus>
</clustering>
</event>
<event>
 6    0  0.6851428E+002  0.3116864E+03  0.7546771E-02  0.1079540E+00
          2   -1    0    0  505    0 -0.00000000000E+00  0.00000000000E+00  0.32167220638E+04  0.32167220638E+04  0.00000000000E+00 0. -1.
         21   -1    0    0  504  502  0.00000000000E+00 -0.00000000000E+00 -0.16181642728E+03  0.16181642728E+03  0.00000000000E+00 0. -1.
         21    1    1    2  503  501 -0.29942870295E+03 -0.14889831028E+03  0.12195343336E+04  0.12645521918E+04  0.00000000000E+00 0. -1.
         21    1    1    2  504  503 -0.16704060565E+02 -0.54756080717E+02  0.50181555847E+02  0.76127804133E+02  0.00000000000E+00 0.  1.
         21    1    1    2  505  502  0.26096484452E+03  0.22858102159E+03  0.11341230270E+03  0.36498532013E+03  0.00000000000E+00 0. -1.
          2    1    1    2  501    0  0.55167918993E+02 -0.24926630593E+02  0.16717774444E+04  0.16728731751E+04  0.00000000000E+00 0. -1.
<scales pt_clust_3="311.68636" pt_clust_4="57.24731" pt_clust_5="14000.00000" pt_clust_6="60.56521"></scales>
<clustering>
<clus scale="   57.247">  2  4  1 -1</clus>
<clus scale="   60.565">  1  6  2 -1</clus>
<clus scale="  311.686">  1  3  2 -1</clus>
<clus scale="   57.247">  2  3  1 -1</clus>
</clustering>
</event>
<event>
 6    0  0.6851428E+002  0.7628866E+02  0.7546771E-02  0.1339926E+00
         21   -1    0    0  505  502  0.00000000000E+00  0.00000000000E+00  0.14952486458E+03  0.14952486458E+03  0.00000000000E+00 0. -1.
          2   -1    0    0  503    0 -0.00000000000E+00 -0.00000000000E+00 -0.97278642065E+03  0.97278642065E+03  0.00000000000E+00 0.  1.
         21    1    1    2  503  502  0.48668659707E+02  0.84746812558E+02 -0.68990690485E+01  0.97970698835E+02  0.00000000000E+00 0. -1.
         21    1    1    2  504  501 -0.53946875283E+02 -0.30218091686E+02 -0.28478535045E+02  0.68076614018E+02  0.00000000000E+00 0. -1.
         21    1    1    2  505  504  0.38388107030E+02 -0.40188469054E+02  0.74599533813E+02  0.93026072966E+02  0.00000000000E+00 0. -1.
          2    1    1    2  501    0 -0.33109891455E+02 -0.14340251819E+02 -0.86248348579E+03  0.86323789942E+03  0.00000000000E+00 0.  1.
<scales pt_clust_3="76.28866" pt_clust_4="14000.00000" pt_clust_5="54.60268" pt_clust_6="36.08196"></scales>
<clustering>
<clus scale="   36.082">  2  6  1 -1</clus>
<clus scale="   54.603">  1  5  2 -1</clus>
<clus scale="   76.289">  1  3  2 -1</clus>
<clus scale="   54.603">  1  3  2 -1</clus>
</clustering>
</event>
<event>
 6    0  0.6851428E+002  0.7822451E+02  0.7546771E-02  0.1334167E+00
          2   -1    0    0  504    0 -0.00000000000E+00  0.00000000000E+00  0.56842408673E+03  0.56842408673E+03  0.00000000000E+00 0.  1.
         21   -1    0    0  503  502  0.00000000000E+00 -0.00000000000E+00 -0.42068576846E+03  0.42068576846E+03  0.00000000000E+00 0. -1.
         21    1    1    2  503  501  0.43589868960E+02 -0.53743259561E+01 -0.39696830200E+03  0.39939052674E+03  0.00000000000E+00 0. -1.
         21    1    1    2  504  505 -0.10880911559E+03  0.57165787320E+02  0.28512663375E+03  0.31049081814E+03  0.00000000000E+00 0.  1.
         21    1    1    2  505  502  0.37460914371E+02 -0.32706276765E+02  0.65459491598E+02  0.82206846951E+02  0.00000000000E+00 0.  1.
          2    1    1    2  501    0  0.27758332261E+02 -0.19085184598E+02  0.19412049492E+03  0.19702166335E+03  0.00000000000E+00 0.  1.
<scales pt_clust_3="44.01703" pt_clust_4="78.22451" pt_clust_5="14000.00000" pt_clust_6="33.68634"></scales>
<clustering>
<clus scale="   33.686">  1  6  2 -1</clus>
<clus scale="   44.017">  2  3  1 -1</clus>
<clus scale="   78.225">  1  4  2 -1</clus>
<clus scale="   44.017">  2  3  1 -1</clus>
</clustering>
</event>
<event>
 6    0  0.6851428E+002  0.1075125E+03  0.7546771E-02  0.1265247E+00
         21   -1    0    0  505  502  0.00000000000E+00  0.00000000000E+00  0.83846288566E+03  0.83846288566E+03  0.00000000000E+00 0. -1.
          2   -1    0    0  504    0 -0.00000000000E+00 -0.00000000000E+00 -0.14086791227E+03  0.14086791227E+03  0.00000000000E+00 0. -1.
         21    1    1    2  503  501 -0.52094100283E+02 -0.92613769840E+02  0.15529729795E+03  0.18817108279E+03  0.00000000000E+00 0. -1.
         21    1    1    2  504  502 -0.84363900881E+01  0.30003232971E+02  0.49654576564E+03  0.49752292815E+03  0.00000000000E+00 0. -1.
         21    1    1    2  505  503 -0.37179087824E+02  0.12212081337E+02  0.14213788725E+03  0.14742658680E+03  0.00000000000E+00 0. -1.
          2    1    1    2  501    0  0.97709578196E+02  0.50398455531E+02 -0.96385977447E+02  0.14621020019E+03  0.00000000000E+00 0. -1.
<scales pt_clust_3="107.51252" pt_clust_4="31.16676" pt_clust_5="47.77912" pt_clust_6="14000.00000"></scales>
<clustering>
<clus scale="   31.167">  1  4  2 -1</clus>
<clus scale="   47.779">  1  5  2 -1</clus>
<clus scale="  107.513">  1  3  2 -1</clus>
<clus scale="   31.167">  1  3  2 -1</clus>
</clustering>
</event>
<event>
 6    0  0.6851428E+002  0.7715673E+02  0.7546771E-02  0.1337320E+00
         21   -1    0    0  503  502  0.00000000000E+00  0.00000000000E+00  0.20751836193E+03  0.20751836193E+03  0.00000000000E+00 0.  1.
          1   -1    0    0  504    0 -0.00000000000E+00 -0.00000000000E+00 -0.86802640006E+03  0.86802640006E+03  0.00000000000E+00 0.  1.
         21    1    1    2  503  505 -0.41236662894E+02 -0.44635565316E+02  0.20631543462E+02  0.64175202713E+02  0.00000000000E+00 0.  1.
         21    1    1    2  504  502  0.82911133358E+01  0.38011571180E+02 -0.90128147675E+01  0.39935609848E+02  0.00000000000E+00 0.  1.
         21    1    1    2  505  501  0.22492324466E+02  0.83042225324E+02  0.13529698269E+03  0.16033461688E+03  0.00000000000E+00 0.  1.
          1    1    1    2  501    0  0.10453225092E+02 -0.76418231188E+02 -0.80742374951E+03  0.81109933254E+03  0.00000000000E+00 0.  1.
<scales pt_clust_3="53.53885" pt_clust_4="38.90530" pt_clust_5="14000.00000" pt_clust_6="77.15673"></scales>
<clustering>
<clus scale="   38.905">  1  4  2 -1</clus>
<clus scale="   53.539">  1  3  2 -1</clus>
<clus scale="   77.157">  2  6  1 -1</clus>
<clus scale="   38.905">  1  3  2 -1</clus>
</clustering>
</event>
<event>
 6    0  0.6851428E+002  0.9135124E+02  0.7546771E-02  0.1299612E+00
         21   -1    0    0  504  502  0.00000000000E+00  0.00000000000E+00  0.20107751793E+03  0.20107751793E+03  0.00000000000E+00 0.  1.
         -2   -1    0    0    0  501 -0.00000000000E+00 -0.00000000000E+00 -0.14137418172E+03  0.14137418172E+03  0.00000000000E+00 0.  1.
         21    1    1    2  503  502 -0.53954518962E+02 -0.49644746252E+02  0.16269181744E+02  0.75102444843E+02  0.00000000000E+00 0.  1.
         21    1    1    2  504  505 -0.41494015168E+02 -0.29469162697E+00  0.82971698452E+02  0.92769299242E+02  0.00000000000E+00 0.  1.
         21    1    1    2  505  501  0.40990725425E+02 -0.43351807064E+02 -0.33438604796E+00  0.59663477611E+02  0.00000000000E+00 0.  1.
         -2    1    1    2    0  503  0.54457808705E+02  0.93291244943E+02 -0.39203157946E+02  0.11491647795E+03  0.00000000000E+00 0.  1.
<scales pt_clust_3="14000.00000" pt_clust_4="41.49506" pt_clust_5="52.85033" pt_clust_6="91.35124"></scales>
<clustering>
<clus scale="   41.495">  1  4  2 -1</clus>
<clus scale="   52.850">  1  5  2 -1</clus>
<clus scale="   91.351">  2  6  1 -1</clus>
<clus scale="   41.495">  1  3  2 -1</clus>
</clustering>
</event>
<event>
 6    0  0.6851428E+002  0.9651400E+02  0.7546771E-02  0.1287802E+00
         21   -1    0    0  501  502  0.00000000000E+00  0.00000000000E+00  0.11642485437E+03  0.11642485437E+03  0.00000000000E+00 0. -1.
          2   -1    0    0  503    0 -0.00000000000E+00 -0.00000000000E+00 -0.28738029227E+03  0.28738029227E+03  0.00000000000E+00 0. -1.
         21    1    1    2  503  505  0.40171341600E+02  0.64607211598E+02 -0.92290944916E+02  0.11960538027E+03  0.00000000000E+00 0. -1.
         21    1    1    2  504  502 -0.30715823371E+02 -0.30847979641E+02  0.35697369837E+02  0.56297085773E+02  0.00000000000E+00 0. -1.
         21    1    1    2  505  504  0.75370035209E+02 -0.70467625082E+02 -0.74393013086E+02  0.12720317916E+03  0.00000000000E+00 0. -1.
          2    1    1    2  501    0 -0.84825553438E+02  0.36708393125E+02 -0.39968849735E+02  0.10069950144E+03  0.00000000000E+00 0. -1.
<scales pt_clust_3="67.87916" pt_clust_4="43.53228" pt_clust_5="14000.00000" pt_clust_6="96.51400"></scales>
<clustering>
<clus scale="   43.532">  1  4  2 -1</clus>
<clus scale="   67.879">  2  3  1 -1</clus>
<clus scale="   96.514">  1  6  2 -1</clus>
<clus scale="   43.532">  1  3  2 -1</clus>
</clustering>
</event>
<event>
 6    0  0.6851428E+002  0.2342221E+03  0.7546771E-02  0.1123703E+00
          2   -1    0    0  503    0 -0.00000000000E+00  0.00000000000E+00  0.65130688848E+03  0.65130688848E+03  0.00000000000E+00 0. -1.
         21   -1    0    0  501  502  0.00000000000E+00 -0.00000000000E+00 -0.87778893702E+03  0.87778893702E+03  0.00000000000E+00 0. -1.
         21    1    1    2  503  504  0.35671482697E+02 -0.13020370995E+02  0.35031988312E+02  0.51664542423E+02  0.00000000000E+00 0.  1.
         21    1    1    2  504  505 -0.20985947549E+03 -0.25648492728E+03  0.37698741392E+03  0.50194125914E+03  0.00000000000E+00 0. -1.
         21    1    1    2  505  502  0.12881875357E+03  0.19122835644E+03 -0.77676070793E+03  0.81025906534E+03  0.00000000000E+00 0. -1.
          2    1    1    2  501    0  0.45369239218E+02  0.78276941833E+02  0.13825925716E+03  0.16523095860E+03  0.00000000000E+00 0. -1.
<scales pt_clust_3="37.97347" pt_clust_4="234.22208" pt_clust_5="14000.00000" pt_clust_6="92.59912"></scales>
<clustering>
<clus scale="   37.973">  1  3  2 -1</clus>
<clus scale="   92.599">  1  6  2 -1</clus>
<clus scale="  234.222">  1  4  2 -1</clus>
<clus scale="  234.222">  2  3  1 -1</clus>
</clustering>
</event>
<event>
 6    0  0.6851428E+002  0.9007869E+02  0.7546771E-02  0.1302661E+00
         21   -1    0    0  504  502  0.00000000000E+00  0.00000000000E+00  0.35185386599E+02  0.35185386599E+02  0.00000000000E+00 0.  1.
          2   -1    0    0  505    0 -0.00000000000E+00 -0.00000000000E+00 -0.22109912899E+04  0.22109912899E+04  0.00000000000E+00 0. -1.
         21    1    1    2  503  501  0.22719262406E+02  0.39258180246E+02 -0.64829390801E+02  0.79121548974E+02  0.00000000000E+00 0.  1.
         21    1    1    2  504  503  0.38273768228E+02 -0.21056804573E+02 -0.70763272557E+01  0.44253189271E+02  0.00000000000E+00 0.  1.
         21    1    1    2  505  502 -0.41085112261E+02  0.73226559889E+02 -0.20406756592E+03  0.22066646094E+03  0.00000000000E+00 0.  1.
          2    1    1    2  501    0 -0.19907918374E+02 -0.91427935562E+02 -0.18998326193E+04  0.19021354773E+04  0.00000000000E+00 0. -1.
<scales pt_clust_3="49.47808" pt_clust_4="43.68375" pt_clust_5="90.07869" pt_clust_6="14000.00000"></scales>
<clustering>
<clus scale="   43.684">  1  4  2 -1</clus>
<clus scale="   49.478">  1  3  2 -1</clus>
<clus scale="   90.079">  1  5  2 -1</clus>
<clus scale="   43.684">  1  3  2 -1</clus>
</clustering>
</event>
<event>
 6    0  0.6851428E+002  0.9059492E+02  0.7546771E-02  0.1301417E+00
          2   -1    0    0  504    0 -0.00000000000E+00  0.00000000000E+00  0.23344580625E+04  0.23344580625E+04  0.00000000000E+00 0. -1.
         21   -1    0    0  501  502  0.00000000000E+00 -0.00000000000E+00 -0.18737801801E+02  0.18737801801E+02  0.00000000000E+00 0. -1.
         21    1    1    2  503  505  0.77120442964E+02  0.56481981537E+02  0.44332077360E+03  0.45350974109E+03  0.00000000000E+00 0. -1.
         21    1    1    2  504  503  0.31607772789E+02  0.28282367481E+02  0.51470953585E+03  0.51645411210E+03  0.00000000000E+00 0. -1.
         21    1    1    2  505  502 -0.60187346394E+01 -0.30575114133E+02  0.13375681775E+02  0.33911231677E+02  0.00000000000E+00 0. -1.
          2    1    1    2  501    0 -0.10270948111E+03 -0.54189234885E+02  0.13443142695E+04  0.13493207794E+04  0.00000000000E+00 0. -1.
<scales pt_clust_3="90.59492" pt_clust_4="39.89923" pt_clust_5="31.16188" pt_clust_6="14000.00000"></scales>
<clustering>
<clus scale="   31.162">  2  5  1 -1</clus>
<clus scale="   39.899">  1  4  2 -1</clus>
<clus scale="   90.595">  2  3  1 -1</clus>
<clus scale="   31.162">  2  3  1 -1</clus>
</clustering>
</event>
<event>
 6    0  0.6851428E+002  0.1002005E+03  0.7546771E-02  0.1279875E+00
         21   -1    0    0  504  502  0.00000000000E+00  0.00000000000E+00  0.17851581606E+03  0.17851581606E+03  0.00000000000E+00 0. -1.
          3   -1    0    0  505    0 -0.00000000000E+00 -0.00000000000E+00 -0.50756977434E+03  0.50756977434E+03  0.00000000000E+00 0. -1.
         21    1    1    2  503  502  0.29652429888E+02  0.87533514234E+01  0.84752690382E+02  0.90215887106E+02  0.00000000000E+00 0. -1.
         21    1    1    2  504  501  0.11321183118E+02  0.63323640443E+02 -0.45335869883E+02  0.78698117666E+02  0.00000000000E+00 0. -1.
         21    1    1    2  505  503 -0.51365086854E+02 -0.13299930824E+03  0.99055238848E+00  0.14257688920E+03  0.00000000000E+00 0. -1.
          3    1    1    2  501    0  0.10391473847E+02  0.60922316377E+02 -0.36946133117E+03  0.37459469643E+03  0.00000000000E+00 0. -1.
<scales pt_clust_3="30.91743" pt_clust_4="14000.00000" pt_clust_5="100.20045" pt_clust_6="62.19099"></scales>
<clustering>
<clus scale="   30.917">  1  3  2 -1</clus>
<clus scale="   62.191">  2  6  1 -1</clus>
<clus scale="  100.200">  1  5  2 -1</clus>
<clus scale="   30.917">  1  3  2 -1</clus>
</clustering>
</event>
<event>
 6    0  0.6851428E+002  0.1242820E+03  0.7546771E-02  0.1236196E+00
         21   -1    0    0  504  502  0.00000000000E+00  0.00000000000E+00  0.72995800159E+02  0.72995800159E+02  0.00000000000E+00 0.  1.
          1   -1    0    0  505    0 -0.00000000000E+00 -0.00000000000E+00 -0.66987255242E+03  0.66987255242E+03  0.00000000000E+00 0.  1.
         21    1    1    2  503  502  0.28199803768E+02 -0.16032692261E+02 -0.27556923024E+02  0.42563601354E+02  0.00000000000E+00 0.  1.
         21    1    1    2  504  501 -0.36880013435E+02 -0.13555766449E+02  0.11048621296E+01  0.39307949773E+02  0.00000000000E+00 0.  1.
         21    1    1    2  505  503 -0.14034331021E+01 -0.99360383809E+02 -0.27822753824E+02  0.10319186560E+03  0.00000000000E+00 0.  1.
          1    1    1    2  501    0  0.10083642770E+02  0.12894884252E+03 -0.54260193754E+03  0.55780493585E+03  0.00000000000E+00 0.  1.
<scales pt_clust_3="32.43881" pt_clust_4="33.71086" pt_clust_5="124.28202" pt_clust_6="14000.00000"></scales>
<clustering>
<clus scale="   32.439">  1  3  2 -1</clus>
<clus scale="   33.711">  1  4  2 -1</clus>
<clus scale="  124.282">  1  5  2 -1</clus>
<clus scale="   32.439">  1  3  2 -1</clus>
</clustering>
</event>
<event>
 6    0  0.6851428E+002  0.1223344E+03  0.7546771E-02  0.1239295E+00
         21   -1    0    0  505  502  0.00000000000E+00  0.00000000000E+00  0.21836009789E+03  0.21836009789E+03  0.00000000000E+00 0. -1.
          2   -1    0    0  503    0 -0.00000000000E+00 -0.00000000000E+00 -0.17251305338E+04  0.17251305338E+04  0.00000000000E+00 0.  1.
         21    1    1    2  503  502 -0.13098090319E+03 -0.20193552852E+02 -0.23191667150E+03  0.26711255885E+03  0.00000000000E+00 0.  1.
         21    1    1    2  504  501  0.15288963757E+02 -0.55232760028E+02 -0.57560495186E+02  0.81225739757E+02  0.00000000000E+00 0. -1.
         21    1    1    2  505  504  0.11476244765E+03  0.40499668132E+02  0.16908847568E+03  0.20833039893E+03  0.00000000000E+00 0. -1.
          2    1    1    2  501    0  0.92949178051E+00  0.34926644749E+02 -0.13863817449E+04  0.13868219342E+04  0.00000000000E+00 0.  1.
<scales pt_clust_3="122.33441" pt_clust_4="50.50407" pt_clust_5="14000.00000" pt_clust_6="34.93901"></scales>
<clustering>
<clus scale="   34.939">  2  6  1 -1</clus>
<clus scale="   50.504">  2  4  1 -1</clus>
<clus scale="  122.334">  2  3  1 -1</clus>
<clus scale="  122.334">  1  3  2 -1</clus>
</clustering>
</event>
<event>
 6    0  0.6851428E+002  0.1071519E+03  0.7546771E-02  0.1265937E+00
          2   -1    0    0  502    0 -0.00000000000E+00  0.00000000000E+00  0.23493359053E+04  0.23493359053E+04  0.00000000000E+00 0. -1.
         21   -1    0    0  503  502  0.00000000000E+00 -0.00000000000E+00 -0.28516196883E+02  0.28516196883E+02  0.00000000000E+00 0.  1.
         21    1    1    2  503  505 -0.10349370394E+02 -0.99542867951E+02  0.77188365078E+02  0.12638803634E+03  0.00000000000E+00 0.  1.
         21    1    1    2  504  501 -0.27665942306E+02  0.58654185390E+02  0.67927842163E+03  0.68236712400E+03  0.00000000000E+00 0. -1.
         21    1    1    2  505  504  0.35871520486E+01  0.69941815090E+02  0.67987950935E+03  0.68347704598E+03  0.00000000000E+00 0.  1.
          2    1    1    2  501    0  0.34428160651E+02 -0.29053132530E+02  0.88447341240E+03  0.88561989589E+03  0.00000000000E+00 0. -1.
<scales pt_clust_3="101.87361" pt_clust_4="31.96336" pt_clust_5="31.96336" pt_clust_6="45.04867"></scales>
<clustering>
<clus scale="   31.963">  4  5 -1 -1</clus>
<clus scale="   45.049">  1  6  2 -1</clus>
<clus scale="  101.874">  2  3  1 -1</clus>
<clus scale="  101.874">  2  3  1 -1</clus>
</clustering>
</event>
<event>
 6    0  0.6851428E+002  0.9215959E+02  0.7546771E-02  0.1297705E+00
         21   -1    0    0  505  502  0.00000000000E+00  0.00000000000E+00  0.17296791214E+03  0.17296791214E+03  0.00000000000E+00 0. -1.
         -2   -1    0    0    0  501 -0.00000000000E+00 -0.00000000000E+00 -0.28413527041E+03  0.28413527041E+03  0.00000000000E+00 0.  1.
         21    1    1    2  503  501  0.62839132092E+02  0.29785464055E+02 -0.57368470649E+02  0.90150273520E+02  0.00000000000E+00 0.  1.
         21    1    1    2  504  502 -0.76551772746E+02  0.12030774246E+02  0.84942965529E+02  0.11497921913E+03  0.00000000000E+00 0.  1.
         21    1    1    2  505  503 -0.46749894945E+02 -0.52999777295E+02  0.26643826588E+02  0.75527627832E+02  0.00000000000E+00 0. -1.
         -2    1    1    2    0  504  0.60462535599E+02  0.11183538994E+02 -0.16538567974E+03  0.17644606207E+03  0.00000000000E+00 0.  1.
<scales pt_clust_3="14000.00000" pt_clust_4="92.15959" pt_clust_5="60.78149" pt_clust_6="61.48813"></scales>
<clustering>
<clus scale="   61.488">  2  6  1 -1</clus>
<clus scale="   60.781">  1  5  2 -1</clus>
<clus scale="   92.160">  1  4  2 -1</clus>
<clus scale="   60.781">  1  3  2 -1</clus>
</clustering>
</event>
<event>
 6    0  0.6851428E+002  0.1043909E+03  0.7546771E-02  0.1271324E+00
          1   -1    0    0  503    0 -0.00000000000E+00  0.00000000000E+00  0.11092091503E+04  0.11092091503E+04  0.00000000000E+00 0.  1.
         21   -1    0    0  504  502  0.00000000000E+00 -0.00000000000E+00 -0.54656260677E+03  0.54656260677E+03  0.00000000000E+00 0. -1.
         21    1    1    2  503  502  0.36165691823E+02  0.11357938463E+03 -0.10965391669E+03  0.16196362345E+03  0.00000000000E+00 0. -1.
         21    1    1    2  504  505 -0.78393065238E+02 -0.73076394254E+01 -0.36080261660E+03  0.36929311179E+03  0.00000000000E+00 0. -1.
         21    1    1    2  505  501  0.73743966691E+02 -0.80035153426E+02  0.20084793153E+02  0.11066705618E+03  0.00000000000E+00 0. -1.
          1    1    1    2  501    0 -0.31516593276E+02 -0.26236591775E+02  0.10130182837E+04  0.10138479657E+04  0.00000000000E+00 0.  1.
<scales pt_clust_3="14000.00000" pt_clust_4="80.23839" pt_clust_5="104.39089" pt_clust_6="41.00798"></scales>
<clustering>
<clus scale="   41.008">  1  6  2 -1</clus>
<clus scale="   80.238">  2  4  1 -1</clus>
<clus scale="  104.391">  1  5  2 -1</clus>
<clus scale="   80.238">  2  3  1 -1</clus>
</clustering>
</event>
<event>
 6    0  0.6851428E+002  0.2848292E+03  0.7546771E-02  0.1093080E+00
          2   -1    0    0  503    0 -0.00000000000E+00  0.00000000000E+00  0.92156360461E+03  0.92156360461E+03  0.00000000000E+00 0. -1.
         21   -1    0    0  501  502  0.00000000000E+00 -0.00000000000E+00 -0.33217133563E+03  0.33217133563E+03  0.00000000000E+00 0. -1.
         21    1    1    2  503  504  0.46170145220E+02 -0.22561696451E+03 -0.31304406995E+02  0.23241054813E+03  0.00000000000E+00 0. -1.
         21    1    1    2  504  505  0.30005659789E+02 -0.24835710272E+02 -0.47919979435E+02  0.61753352566E+02  0.00000000000E+00 0. -1.
         21    1    1    2  505  502  0.27384869994E+02 -0.27405995960E+02 -0.11519892659E+03  0.12153934510E+03  0.00000000000E+00 0. -1.
          2    1    1    2  501    0 -0.10356067500E+03  0.27785867074E+03  0.78381558201E+03  0.83803169445E+03  0.00000000000E+00 0. -1.
<scales pt_clust_3="284.82919" pt_clust_4="83.59686" pt_clust_5="30.99063" pt_clust_6="14000.00000"></scales>
<clustering>
<clus scale="   30.991">  4  5 -1 -1</clus>
<clus scale="   83.597">  2  4  1 -1</clus>
<clus scale="  284.829">  2  3  1 -1</clus>
<clus scale="   83.597">  2  3  1 -1</clus>
</clustering>
</event>
<event>
 6    0  0.6851428E+002  0.7507219E+02  0.7546771E-02  0.1343648E+00
          2   -1    0    0  505    0 -0.00000000000E+00  0.00000000000E+00  0.46664717789E+04  0.46664717789E+04  0.00000000000E+00 0.  1.
         21   -1    0    0  503  502  0.00000000000E+00 -0.00000000000E+00 -0.26505731874E+02  0.26505731874E+02  0.00000000000E+00 0.  1.
         21    1    1    2  503  501  0.82284730492E+02  0.76536751638E+01  0.20568126448E+03  0.22166221639E+03  0.00000000000E+00 0.  1.
         21    1    1    2  504  502 -0.39303110105E+02  0.33051751959E+02  0.24231464051E+03  0.24769646299E+03  0.00000000000E+00 0.  1.
         21    1    1    2  505  504 -0.97245896970E+02  0.11060020717E+02  0.13924929905E+03  0.17020415923E+03  0.00000000000E+00 0.  1.
          2    1    1    2  501    0  0.54264276583E+02 -0.51765447840E+02  0.40527208429E+04  0.40534146721E+04  0.00000000000E+00 0.  1.
<scales pt_clust_3="71.59458" pt_clust_4="51.35322" pt_clust_5="14000.00000" pt_clust_6="75.07219"></scales>
<clustering>
<clus scale="   51.353">  2  4  1 -1</clus>
<clus scale="   71.595">  2  3  1 -1</clus>
<clus scale="   75.072">  1  6  2 -1</clus>
<clus scale="   51.353">  2  3  1 -1</clus>
</clustering>
</event>
<event>
 6    0  0.6851428E+002  0.1398668E+03  0.7546771E-02  0.1213508E+00
         21   -1    0    0  503  502  0.00000000000E+00  0.00000000000E+00  0.83458693075E+02  0.83458693075E+02  0.00000000000E+00 0.  1.
         -3   -1    0    0    0  501 -0.00000000000E+00 -0.00000000000E+00 -0.19121700919E+04  0.19121700919E+04  0.00000000000E+00 0. -1.
         21    1    1    2  503  504  0.46416651321E+02  0.15329008775E+03 -0.33839749498E+02  0.16369937437E+03  0.00000000000E+00 0.  1.
         21    1    1    2  504  505 -0.76139264186E+02 -0.74752315642E+02 -0.19695613604E+03  0.22400182091E+03  0.00000000000E+00 0.  1.
         21    1    1    2  505  501  0.28453631411E+02 -0.37622887709E+02 -0.11303122065E+03  0.12247917236E+03  0.00000000000E+00 0.  1.
         -3    1    1    2    0  502  0.12689814539E+01 -0.40914884399E+02 -0.14848842926E+04  0.14854484174E+04  0.00000000000E+00 0. -1.
<scales pt_clust_3="139.86682" pt_clust_4="14000.00000" pt_clust_5="56.75778" pt_clust_6="40.93456"></scales>
<clustering>
<clus scale="   40.935">  2  6  1 -1</clus>
<clus scale="   56.758">  2  5  1 -1</clus>
<clus scale="  139.867">  1  3  2 -1</clus>
<clus scale="  139.867">  1  3  2 -1</clus>
</clustering>
</event>
<event>
 6    0  0.6851428E+002  0.1349843E+03  0.7546771E-02  0.1220242E+00
         21   -1    0    0  503  502  0.00000000000E+00  0.00000000000E+00  0.20982608303E+03  0.20982608303E+03  0.00000000000E+00 0. -1.
          2   -1    0    0  504    0 -0.00000000000E+00 -0.00000000000E+00 -0.13653184853E+04  0.13653184853E+04  0.00000000000E+00 0. -1.
         21    1    1    2  503  505 -0.13603062926E+03 -0.44922799237E+02  0.11275644295E+03  0.18230854455E+03  0.00000000000E+00 0. -1.
         21    1    1    2  504  502 -0.30077136363E+02  0.45418494297E+02 -0.17315388229E+02  0.57160269642E+02  0.00000000000E+00 0. -1.
         21    1    1    2  505  501  0.11969699974E+03 -0.21981932419E+01 -0.43539200368E+02  0.12738864066E+03  0.00000000000E+00 0. -1.
          2    1    1    2  501    0  0.46410765884E+02  0.17024981813E+01 -0.12073942566E+04  0.12082871134E+04  0.00000000000E+00 0. -1.
<scales pt_clust_3="134.98428" pt_clust_4="49.64355" pt_clust_5="14000.00000" pt_clust_6="46.44198"></scales>
<clustering>
<clus scale="   46.442">  2  6  1 -1</clus>
<clus scale="   49.644">  2  4  1 -1</clus>
<clus scale="  134.984">  1  3  2 -1</clus>
<clus scale="  134.984">  1  3  2 -1</clus>
</clustering>
</event>
<event>
 6    0  0.6851428E+002  0.1240528E+03  0.7546771E-02  0.1236557E+00
          1   -1    0    0  505    0 -0.00000000000E+00  0.00000000000E+00  0.87611682121E+03  0.87611682121E+03  0.00000000000E+00 0. -1.
         21   -1    0    0  504  502  0.00000000000E+00 -0.00000000000E+00 -0.42926092361E+03  0.42926092361E+03  0.00000000000E+00 0.  1.
         21    1    1    2  503  502  0.81623747719E+01 -0.58886983319E+02 -0.18089838577E+03  0.19041671969E+03  0.00000000000E+00 0.  1.
         21    1    1    2  504  501  0.57573211287E+02  0.11685819231E+03  0.10390213639E+03  0.16663182684E+03  0.00000000000E+00 0. -1.
         21    1    1    2  505  503 -0.34242218812E+02 -0.53883387797E+02 -0.20708478572E+03  0.21670269382E+03  0.00000000000E+00 0.  1.
          1    1    1    2  501    0 -0.31493367247E+02 -0.40878211976E+01  0.73093693270E+03  0.73162650447E+03  0.00000000000E+00 0. -1.
<scales pt_clust_3="40.92693" pt_clust_4="116.49525" pt_clust_5="40.92693" pt_clust_6="31.75756"></scales>
<clustering>
<clus scale="   31.758">  1  6  2 -1</clus>
<clus scale="   40.927">  3  5 -1 -1</clus>
<clus scale="  116.495">  1  4  2 -1</clus>
<clus scale="  124.053">  2  3  1 -1</clus>
</clustering>
</event>
<event>
 6    0  0.6851428E+002  0.1101811E+03  0.7546771E-02  0.1260235E+00
         -1   -1    0    0    0  501 -0.00000000000E+00  0.00000000000E+00  0.88966942745E+03  0.88966942745E+03  0.00000000000E+00 0. -1.
         21   -1    0    0  504  502  0.00000000000E+00 -0.00000000000E+00 -0.16278265617E+03  0.16278265617E+03  0.00000000000E+00 0. -1.
         21    1    1    2  503  502 -0.31317729937E+02  0.23388292836E+02 -0.10691797937E+03  0.11383877530E+03  0.00000000000E+00 0. -1.
         21    1    1    2  504  501  0.35550707665E+02  0.58475726877E+02 -0.52759274384E+01  0.68637445026E+02  0.00000000000E+00 0. -1.
         21    1    1    2  505  503  0.49633126211E+02  0.19632774641E+02  0.51882758127E+02  0.74435970125E+02  0.00000000000E+00 0. -1.
         -1    1    1    2    0  505 -0.53866103939E+02 -0.10149679435E+03  0.78719791997E+03  0.79553989317E+03  0.00000000000E+00 0. -1.
<scales pt_clust_3="39.08724" pt_clust_4="110.18108" pt_clust_5="49.48018" pt_clust_6="14000.00000"></scales>
<clustering>
<clus scale="   39.087">  2  3  1 -1</clus>
<clus scale="   49.480">  2  5  1 -1</clus>
<clus scale="  110.181">  2  4  1 -1</clus>
<clus scale="   39.087">  2  3  1 -1</clus>
</clustering>
</event>
<event>
 6    0  0.6851428E+002  0.1091261E+03  0.7546771E-02  0.1262197E+00
         -2   -1    0    0    0  501 -0.00000000000E+00  0.00000000000E+00  0.10886038645E+03  0.10886038645E+03  0.00000000000E+00 0.  1.
         21   -1    0    0  504  502  0.00000000000E+00 -0.00000000000E+00 -0.69779708379E+03  0.69779708379E+03  0.00000000000E+00 0.  1.
         21    1    1    2  503  502  0.20460052233E+02 -0.40350697144E+02 -0.15263108416E+03  0.15919497589E+03  0.00000000000E+00 0.  1.
         21    1    1    2  504  501 -0.32048932130E+02  0.60122949962E+02 -0.81353622084E+02  0.10611463136E+03  0.00000000000E+00 0. -1.
         21    1    1    2  505  503  0.63724285548E+02 -0.46700337594E+02 -0.43498880942E+03  0.44210515765E+03  0.00000000000E+00 0.  1.
         -2    1    1    2    0  505 -0.52135405651E+02  0.26928084776E+02  0.80036818331E+02  0.99242705327E+02  0.00000000000E+00 0.  1.
<scales pt_clust_3="30.26767" pt_clust_4="101.53169" pt_clust_5="30.26767" pt_clust_6="58.67898"></scales>
<clustering>
<clus scale="   30.268">  3  5 -1 -1</clus>
<clus scale="   58.679">  1  6  2 -1</clus>
<clus scale="  101.532">  1  4  2 -1</clus>
<clus scale="  109.126">  2  3  1 -1</clus>
</clustering>
</event>
<event>
 6    0  0.6851428E+002  0.9233034E+02  0.7546771E-02  0.1297305E+00
          2   -1    0    0  504    0 -0.00000000000E+00  0.00000000000E+00  0.11428847257E+04  0.11428847257E+04  0.00000000000E+00 0. -1.
         21   -1    0    0  505  502  0.00000000000E+00 -0.00000000000E+00 -0.11843637027E+04  0.11843637027E+04  0.00000000000E+00 0. -1.
         21    1    1    2  503  502 -0.33984796063E+02 -0.22439024547E+02 -0.11462729570E+04  0.11469961500E+04  0.00000000000E+00 0. -1.
         21    1    1    2  504  503  0.12130699285E+03  0.37275719674E+02  0.10380816727E+03  0.16395426614E+03  0.00000000000E+00 0.  1.
         21    1    1    2  505  501 -0.53777326955E+02 -0.68486177424E+02  0.29775362780E+03  0.31022504777E+03  0.00000000000E+00 0. -1.
          2    1    1    2  501    0 -0.33544869834E+02  0.53649482297E+02  0.70323218489E+03  0.70607296443E+03  0.00000000000E+00 0. -1.
<scales pt_clust_3="40.72439" pt_clust_4="92.33034" pt_clust_5="14000.00000" pt_clust_6="63.25401"></scales>
<clustering>
<clus scale="   40.724">  2  3  1 -1</clus>
<clus scale="   63.254">  1  6  2 -1</clus>
<clus scale="   92.330">  2  4  1 -1</clus>
<clus scale="   40.724">  2  3  1 -1</clus>
</clustering>
</event>
<event>
 6    0  0.6851428E+002  0.8593261E+02  0.7546771E-02  0.1313012E+00
         21   -1    0    0  505  502  0.00000000000E+00  0.00000000000E+00  0.10293399459E+04  0.10293399459E+04  0.00000000000E+00 0.  1.
         -3   -1    0    0    0  501 -0.00000000000E+00 -0.00000000000E+00 -0.32874904935E+02  0.32874904935E+02  0.00000000000E+00 0. -1.
         21    1    1    2  503  504  0.57949220189E+02  0.14676373325E+02  0.38218786115E+02  0.70951981414E+02  0.00000000000E+00 0.  1.
         21    1    1    2  504  502 -0.13226174730E+03  0.27297954741E+02  0.46067131605E+03  0.48005875637E+03  0.00000000000E+00 0.  1.
         21    1    1    2  505  501  0.47344168741E+02 -0.20325624548E+02  0.44685937275E+03  0.44981985321E+03  0.00000000000E+00 0.  1.
         -3    1    1    2    0  503  0.26968358366E+02 -0.21648703518E+02  0.50715566040E+02  0.61384259836E+02  0.00000000000E+00 0. -1.
<scales pt_clust_3="14000.00000" pt_clust_4="85.93261" pt_clust_5="53.31610" pt_clust_6="34.58264"></scales>
<clustering>
<clus scale="   34.583">  2  6  1 -1</clus>
<clus scale="   53.316">  1  5  2 -1</clus>
<clus scale="   85.933">  1  4  2 -1</clus>
<clus scale="   53.316">  1  3  2 -1</clus>
</clustering>
</event>
<event>
 6    0  0.6851428E+002  0.9392106E+02  0.7546771E-02  0.1293625E+00
         21   -1    0    0  504  502  0.00000000000E+00  0.00000000000E+00  0.67928645220E+03  0.67928645220E+03  0.00000000000E+00 0.  1.
          1   -1    0    0  503    0 -0.00000000000E+00 -0.00000000000E+00 -0.11290232103E+04  0.11290232103E+04  0.00000000000E+00 0.  1.
         21    1    1    2  503  505  0.62480352399E+02  0.85560594441E+02 -0.33520418501E+03  0.35154836852E+03  0.00000000000E+00 0.  1.
         21    1    1    2  504  501 -0.22188228565E+02 -0.34910397648E+02 -0.85068676273E+02  0.94592457593E+02  0.00000000000E+00 0. -1.
         21    1    1    2  505  502 -0.46383829175E+02 -0.81542671430E+02  0.66269097015E+03  0.66929813147E+03  0.00000000000E+00 0.  1.
          1    1    1    2  501    0  0.60917053413E+01  0.30892474636E+02 -0.69215486694E+03  0.69287070489E+03  0.00000000000E+00 0.  1.
<scales pt_clust_3="14000.00000" pt_clust_4="35.40521" pt_clust_5="93.92106" pt_clust_6="31.48736"></scales>
<clustering>
<clus scale="   31.487">  2  6  1 -1</clus>
<clus scale="   35.405">  2  4  1 -1</clus>
<clus scale="   93.921">  1  5  2 -1</clus>
<clus scale="   93.921">  1  3  2 -1</clus>
</clustering>
</event>
<event>
 6    0  0.6851428E+002  0.8496138E+02  0.7546771E-02  0.1315534E+00
          1   -1    0    0  504    0 -0.00000000000E+00  0.00000000000E+00  0.91264051855E+02  0.91264051855E+02  0.00000000000E+00 0.  1.
         21   -1    0    0  503  502  0.00000000000E+00 -0.00000000000E+00 -0.71119047399E+03  0.71119047399E+03  0.00000000000E+00 0.  1.
         21    1    1    2  503  501  0.41837706887E+02  0.36479959163E+02 -0.47773313733E+03  0.48094711938E+03  0.00000000000E+00 0.  1.
         21    1    1    2  504  505 -0.99866820694E+02 -0.32046346346E+01 -0.30270107771E+02  0.10440273456E+03  0.00000000000E+00 0.  1.
         21    1    1    2  505  502  0.36277003136E+02 -0.91987138471E+02 -0.11828336189E+03  0.15417071155E+03  0.00000000000E+00 0.  1.
          1    1    1    2  501    0  0.21752110670E+02  0.58711813943E+02  0.63601848514E+01  0.62933960359E+02  0.00000000000E+00 0.  1.
<scales pt_clust_3="55.50839" pt_clust_4="14000.00000" pt_clust_5="84.96138" pt_clust_6="68.63512"></scales>
<clustering>
<clus scale="   55.508">  2  3  1 -1</clus>
<clus scale="   68.635">  1  6  2 -1</clus>
<clus scale="   84.961">  2  5  1 -1</clus>
<clus scale="   55.508">  2  3  1 -1</clus>
</clustering>
</event>
<event>
 6    0  0.6851428E+002  0.1058585E+03  0.7546771E-02  0.1268437E+00
         -2   -1    0    0    0  501 -0.00000000000E+00  0.00000000000E+00  0.37554641416E+03  0.37554641416E+03  0.00000000000E+00 0.  1.
         21   -1    0    0  501  502  0.00000000000E+00 -0.00000000000E+00 -0.44734949470E+03  0.44734949470E+03  0.00000000000E+00 0.  1.
         21    1    1    2  503  502  0.40496555490E+02 -0.42022683111E+01 -0.15971573448E+02  0.43734668444E+02  0.00000000000E+00 0. -1.
         21    1    1    2  504  505 -0.45061924400E+02  0.52806337475E+02  0.51110672839E+02  0.86205493945E+02  0.00000000000E+00 0.  1.
         21    1    1    2  505  503  0.35148829935E+02 -0.88111359378E+02 -0.39212141495E+03  0.40343308734E+03  0.00000000000E+00 0.  1.
         -2    1    1    2    0  504 -0.30583461024E+02  0.39507290214E+02  0.28517923502E+03  0.28952265914E+03  0.00000000000E+00 0.  1.
<scales pt_clust_3="40.71400" pt_clust_4="105.85855" pt_clust_5="14000.00000" pt_clust_6="49.81573"></scales>
<clustering>
<clus scale="   40.714">  2  3  1 -1</clus>
<clus scale="   49.816">  1  6  2 -1</clus>
<clus scale="  105.859">  1  4  2 -1</clus>
<clus scale="   40.714">  2  3  1 -1</clus>
</clustering>
</event>
<event>
 6    0  0.6851428E+002  0.7436559E+02  0.7546771E-02  0.1345847E+00
         21   -1    0    0  503  502  0.00000000000E+00  0.00000000000E+00  0.32702402897E+02  0.32702402897E+02  0.00000000000E+00 0. -1.
          2   -1    0    0  505    0 -0.00000000000E+00 -0.00000000000E+00 -0.14013532195E+04  0.14013532195E+04  0.00000000000E+00 0. -1.
         21    1    1    2  503  504 -0.21483790493E+02  0.58311958810E+02 -0.16381134742E+03  0.17520272640E+03  0.00000000000E+00 0. -1.
         21    1    1    2  504  501  0.80979285729E+01 -0.76835011939E+02 -0.18313378774E+03  0.19876413086E+03  0.00000000000E+00 0.  1.
         21    1    1    2  505  502 -0.61680836124E+02  0.23882179345E+02 -0.43887642631E+02  0.79378896509E+02  0.00000000000E+00 0. -1.
          2    1    1    2  501    0  0.75066698044E+02 -0.53591262162E+01 -0.97781803884E+03  0.98070986865E+03  0.00000000000E+00 0. -1.
<scales pt_clust_3="62.14369" pt_clust_4="59.99026" pt_clust_5="14000.00000" pt_clust_6="74.36559"></scales>
<clustering>
<clus scale="   62.144">  1  3  2 -1</clus>
<clus scale="   59.990">  1  4  2 -1</clus>
<clus scale="   74.366">  2  6  1 -1</clus>
<clus scale="   62.144">  1  3  2 -1</clus>
</clustering>
</event>
<event>
 6    0  0.6851428E+002  0.1058193E+03  0.7546771E-02  0.1268514E+00
         21   -1    0    0  505  502  0.00000000000E+00  0.00000000000E+00  0.13830594312E+03  0.13830594312E+03  0.00000000000E+00 0. -1.
          1   -1    0    0  504    0 -0.00000000000E+00 -0.00000000000E+00 -0.91545297154E+03  0.91545297154E+03  0.00000000000E+00 0. -1.
         21    1    1    2  503  501 -0.95761845024E+02  0.52408609782E+02  0.44521248314E+02  0.11789459230E+03  0.00000000000E+00 0. -1.
         21    1    1    2  504  502  0.42215359615E+02 -0.52050868790E+02 -0.25959163364E+02  0.71870075078E+02  0.00000000000E+00 0. -1.
         21    1    1    2  505  503 -0.37319643387E+02 -0.11804669344E+02  0.19448771717E+02  0.43707673493E+02  0.00000000000E+00 0.  1.
          1    1    1    2  501    0  0.90866128795E+02  0.11446928352E+02 -0.81515788508E+03  0.82028657379E+03  0.00000000000E+00 0. -1.
<scales pt_clust_3="30.90499" pt_clust_4="67.01813" pt_clust_5="30.90499" pt_clust_6="92.37947"></scales>
<clustering>
<clus scale="   30.905">  3  5 -1 -1</clus>
<clus scale="   67.018">  1  4  2 -1</clus>
<clus scale="   92.379">  2  6  1 -1</clus>
<clus scale="   67.018">  1  3  2 -1</clus>
</clustering>
</event>
<event>
 6    0  0.6851428E+002  0.9209206E+02  0.7546771E-02  0.1297863E+00
         21   -1    0    0  505  502  0.00000000000E+00  0.00000000000E+00  0.91259927413E+02  0.91259927413E+02  0.00000000000E+00 0. -1.
          2   -1    0    0  503    0 -0.00000000000E+00 -0.00000000000E+00 -0.47764314077E+03  0.47764314077E+03  0.00000000000E+00 0.  1.
         21    1    1    2  503  502 -0.90336958544E+01  0.38927903382E+02 -0.54555900357E+02  0.67626441473E+02  0.00000000000E+00 0. -1.
         21    1    1    2  504  501 -0.66043441021E+02  0.44989846957E+01 -0.41470085489E+02  0.78113666894E+02  0.00000000000E+00 0. -1.
         21    1    1    2  505  504  0.11118941025E+03 -0.26813112702E+02  0.14886895549E+02  0.11534143932E+03  0.00000000000E+00 0. -1.
          2    1    1    2  501    0 -0.36112273374E+02 -0.16613775375E+02 -0.30524412306E+03  0.30782152050E+03  0.00000000000E+00 0.  1.
<scales pt_clust_3="39.61744" pt_clust_4="14000.00000" pt_clust_5="92.09206" pt_clust_6="39.75065"></scales>
<clustering>
<clus scale="   39.751">  2  6  1 -1</clus>
<clus scale="   39.617">  2  3  1 -1</clus>
<clus scale="   92.092">  1  5  2 -1</clus>
<clus scale="   92.092">  1  3  2 -1</clus>
</clustering>
</event>
<event>
 6    0  0.6851428E+002  0.8589999E+02  0.7546771E-02  0.1313096E+00
         21   -1    0    0  505  502  0.00000000000E+00  0.00000000000E+00  0.31930662788E+03  0.31930662788E+03  0.00000000000E+00 0. -1.
          3   -1    0    0  504    0 -0.00000000000E+00 -0.00000000000E+00 -0.30199908147E+03  0.30199908147E+03  0.00000000000E+00 0.  1.
         21    1    1    2  503  502  0.40049801632E+02  0.90463748829E+02  0.19391449677E+03  0.21769361157E+03  0.00000000000E+00 0. -1.
         21    1    1    2  504  503 -0.44733909887E+02 -0.81536886779E+02 -0.20269459725E+02  0.95185280358E+02  0.00000000000E+00 0. -1.
         21    1    1    2  505  501 -0.65075913939E+02 -0.40459808778E+01  0.55325349444E+02  0.85511045060E+02  0.00000000000E+00 0. -1.
          3    1    1    2  501    0  0.69760022194E+02 -0.48808811728E+01 -0.21166284007E+03  0.22291577236E+03  0.00000000000E+00 0.  1.
<scales pt_clust_3="85.89999" pt_clust_4="14000.00000" pt_clust_5="65.20157" pt_clust_6="68.46968"></scales>
<clustering>
<clus scale="   65.202">  1  5  2 -1</clus>
<clus scale="   68.470">  2  6  1 -1</clus>
<clus scale="   85.900">  1  3  2 -1</clus>
<clus scale="   65.202">  1  3  2 -1</clus>
</clustering>
</event>
<event>
 6    0  0.6851428E+002  0.2239292E+03  0.7546771E-02  0.1130987E+00
         21   -1    0    0  503  502  0.00000000000E+00  0.00000000000E+00  0.62591696893E+03  0.62591696893E+03  0.00000000000E+00 0. -1.
          2   -1    0    0  502    0 -0.00000000000E+00 -0.00000000000E+00 -0.31539304357E+04  0.31539304357E+04  0.00000000000E+00 0.  1.
         21    1    1    2  503  504 -0.21725334262E+03  0.49374163038E+02  0.59601557179E+03  0.63629504530E+03  0.00000000000E+00 0. -1.
         21    1    1    2  504  505  0.69369691857E+02  0.13292253995E+02 -0.38611641861E+03  0.39252353672E+03  0.00000000000E+00 0.  1.
         21    1    1    2  505  501  0.82127823414E+02  0.58656522061E+02 -0.58053830593E+03  0.58924552744E+03  0.00000000000E+00 0.  1.
          2    1    1    2  501    0  0.65755827353E+02 -0.12132293909E+03 -0.21573743141E+04  0.21617832952E+04  0.00000000000E+00 0.  1.
<scales pt_clust_3="220.95994" pt_clust_4="30.40587" pt_clust_5="30.40587" pt_clust_6="137.99668"></scales>
<clustering>
<clus scale="   30.406">  4  5 -1 -1</clus>
<clus scale="  137.997">  2  6  1 -1</clus>
<clus scale="  220.960">  1  3  2 -1</clus>
<clus scale="  220.960">  1  3  2 -1</clus>
</clustering>
</event>
<event>
 6    0  0.6851428E+002  0.1419446E+03  0.7546771E-02  0.1210736E+00
          1   -1    0    0  503    0 -0.00000000000E+00  0.00000000000E+00  0.70657496961E+03  0.70657496961E+03  0.00000000000E+00 0.  1.
         21   -1    0    0  504  502  0.00000000000E+00 -0.00000000000E+00 -0.63122865860E+02  0.63122865860E+02  0.00000000000E+00 0.  1.
         21    1    1    2  503  502 -0.34145578998E+02  0.21425917142E+02  0.11425855647E+02  0.41899172638E+02  0.00000000000E+00 0.  1.
         21    1    1    2  504  505  0.17601631850E+02 -0.83806569089E+02  0.37880402072E+02  0.93639112167E+02  0.00000000000E+00 0.  1.
         21    1    1    2  505  501  0.39173893425E+01 -0.67133309392E+02  0.83595226450E+02  0.10728648123E+03  0.00000000000E+00 0.  1.
          1    1    1    2  501    0  0.12626557805E+02  0.12951396134E+03  0.51055061958E+03  0.52687306944E+03  0.00000000000E+00 0.  1.
<scales pt_clust_3="40.31117" pt_clust_4="45.36350" pt_clust_5="45.36350" pt_clust_6="133.33944"></scales>
<clustering>
<clus scale="   40.311">  2  3  1 -1</clus>
<clus scale="   45.363">  4  5 -1 -1</clus>
<clus scale="  133.339">  1  6  2 -1</clus>
<clus scale="   40.311">  2  3  1 -1</clus>
</clustering>
</event>
<event>
 6    0  0.6851428E+002  0.1916125E+03  0.7546771E-02  0.1157015E+00
          2   -1    0    0  504    0 -0.00000000000E+00  0.00000000000E+00  0.36618396529E+03  0.36618396529E+03  0.00000000000E+00 0. -1.
         21   -1    0    0  505  502  0.00000000000E+00 -0.00000000000E+00 -0.25925131565E+03  0.25925131565E+03  0.00000000000E+00 0. -1.
         21    1    1    2  503  502  0.33445612266E+02  0.35881929811E+01  0.38787371324E+00  0.33639776378E+02  0.00000000000E+00 0. -1.
         21    1    1    2  504  503  0.12701717729E+03 -0.11425946378E+03 -0.81174229304E+02  0.18915032089E+03  0.00000000000E+00 0. -1.
         21    1    1    2  505  501 -0.12660564007E+03  0.10253303914E+03 -0.43655706723E+02  0.16866485391E+03  0.00000000000E+00 0. -1.
          2    1    1    2  501    0 -0.33857149479E+02  0.81382316599E+01  0.23137471195E+03  0.23398032976E+03  0.00000000000E+00 0. -1.
<scales pt_clust_3="31.72692" pt_clust_4="31.72692" pt_clust_5="177.77176" pt_clust_6="34.82151"></scales>
<clustering>
<clus scale="   31.727">  3  4 -1 -1</clus>
<clus scale="   34.822">  1  6  2 -1</clus>
<clus scale="  177.772">  2  5  1 -1</clus>
<clus scale="  177.772">  2  3  1 -1</clus>
</clustering>
</event>
<event>
 6    0  0.6851428E+002  0.8433838E+02  0.7546771E-02  0.1317172E+00
          1   -1    0    0  505    0 -0.00000000000E+00  0.00000000000E+00  0.31422159107E+03  0.31422159107E+03  0.00000000000E+00 0.  1.
         21   -1    0    0  504  502  0.00000000000E+00 -0.00000000000E+00 -0.39527812971E+03  0.39527812971E+03  0.00000000000E+00 0. -1.
         21    1    1    2  503  502 -0.64072415187E+02 -0.20630085992E+02  0.14330054763E+03  0.15832220876E+03  0.00000000000E+00 0.  1.
         21    1    1    2  504  501 -0.22711329474E+02  0.65077741685E+02 -0.35270611987E+03  0.35937796808E+03  0.00000000000E+00 0. -1.
         21    1    1    2  505  503 -0.20052294308E+02 -0.23093518620E+02  0.13302945922E+02  0.33352263484E+02  0.00000000000E+00 0. -1.
          1    1    1    2  501    0  0.10683603897E+03 -0.21354137072E+02  0.11504608768E+03  0.15844728045E+03  0.00000000000E+00 0.  1.
<scales pt_clust_3="14000.00000" pt_clust_4="68.75330" pt_clust_5="30.58439" pt_clust_6="84.33838"></scales>
<clustering>
<clus scale="   30.584">  1  5  2 -1</clus>
<clus scale="   68.753">  2  4  1 -1</clus>
<clus scale="   84.338">  2  6  1 -1</clus>
<clus scale="   68.753">  2  3  1 -1</clus>
</clustering>
</event>
<event>
 6    0  0.6851428E+002  0.1013899E+03  0.7546771E-02  0.1277400E+00
         21   -1    0    0  504  502  0.00000000000E+00  0.00000000000E+00  0.21706873271E+02  0.21706873271E+02  0.00000000000E+00 0. -1.
          2   -1    0    0  503    0 -0.00000000000E+00 -0.00000000000E+00 -0.26533315440E+04  0.26533315440E+04  0.00000000000E+00 0.  1.
         21    1    1    2  503  502  0.52167477006E+02 -0.85274012215E+02 -0.29828666920E+03  0.31459186233E+03  0.00000000000E+00 0. -1.
         21    1    1    2  504  505  0.72253554742E+02  0.11028085890E+03 -0.47117604072E+03  0.48927426395E+03  0.00000000000E+00 0. -1.
         21    1    1    2  505  501 -0.73340649538E+02 -0.39867947379E+02 -0.43028989870E+03  0.43831233273E+03  0.00000000000E+00 0. -1.
          2    1    1    2  501    0 -0.51080382210E+02  0.14861100696E+02 -0.14318720622E+04  0.14328599583E+04  0.00000000000E+00 0.  1.
<scales pt_clust_3="90.54091" pt_clust_4="101.38992" pt_clust_5="14000.00000" pt_clust_6="53.19829"></scales>
<clustering>
<clus scale="   53.198">  2  6  1 -1</clus>
<clus scale="   90.541">  1  3  2 -1</clus>
<clus scale="  101.390">  1  4  2 -1</clus>
<clus scale="   90.541">  1  3  2 -1</clus>
</clustering>
</event>
<event>
 6    0  0.6851428E+002  0.1607127E+03  0.7546771E-02  0.1187894E+00
         21   -1    0    0  501  502  0.00000000000E+00  0.00000000000E+00  0.23791005957E+03  0.23791005957E+03  0.00000000000E+00 0.  1.
          2   -1    0    0  503    0 -0.00000000000E+00 -0.00000000000E+00 -0.36920647558E+04  0.36920647558E+04  0.00000000000E+00 0.  1.
         21    1    1    2  503  504 -0.90675606391E+02 -0.69017805452E+02 -0.16573825285E+03  0.20113351665E+03  0.00000000000E+00 0. -1.
         21    1    1    2  504  505  0.14463161815E+03  0.86842604198E+02  0.58181974570E+01  0.16880104945E+03  0.00000000000E+00 0.  1.
         21    1    1    2  505  502  0.77144076252E+01  0.49579275764E+02  0.12753545134E+03  0.13705074979E+03  0.00000000000E+00 0.  1.
          2    1    1    2  501    0 -0.61670419384E+02 -0.67404074509E+02 -0.34217700922E+04  0.34229894995E+04  0.00000000000E+00 0.  1.
<scales pt_clust_3="14000.00000" pt_clust_4="160.71275" pt_clust_5="50.17586" pt_clust_6="91.11837"></scales>
<clustering>
<clus scale="   50.176">  1  5  2 -1</clus>
<clus scale="   91.118">  2  6  1 -1</clus>
<clus scale="  160.713">  1  4  2 -1</clus>
<clus scale="   50.176">  1  3  2 -1</clus>
</clustering>
</event>
<event>
 6    0  0.6851428E+002  0.1130416E+03  0.7546771E-02  0.1255039E+00
          2   -1    0    0  503    0 -0.00000000000E+00  0.00000000000E+00  0.25009537088E+04  0.25009537088E+04  0.00000000000E+00 0. -1.
         21   -1    0    0  505  502  0.00000000000E+00 -0.00000000000E+00 -0.21986883120E+02  0.21986883120E+02  0.00000000000E+00 0.  1.
         21    1    1    2  503  504 -0.47584335538E+02 -0.59274047706E+02  0.90780071394E+03  0.91097739705E+03  0.00000000000E+00 0. -1.
         21    1    1    2  504  502  0.37343249416E+02  0.12710396853E+02  0.21060793738E+02  0.44717217020E+02  0.00000000000E+00 0.  1.
         21    1    1    2  505  501 -0.73944832082E+02  0.10514127309E+03  0.84491730391E+03  0.85463897404E+03  0.00000000000E+00 0. -1.
          2    1    1    2  501    0  0.84185918204E+02 -0.58577622237E+02  0.70518801406E+03  0.71260700377E+03  0.00000000000E+00 0. -1.
<scales pt_clust_3="70.88346" pt_clust_4="39.44708" pt_clust_5="14000.00000" pt_clust_6="113.04160"></scales>
<clustering>
<clus scale="   39.447">  2  4  1 -1</clus>
<clus scale="   70.883">  1  3  2 -1</clus>
<clus scale="  113.042">  1  6  2 -1</clus>
<clus scale="   39.447">  2  3  1 -1</clus>
</clustering>
</event>
<event>
 6    0  0.6851428E+002  0.1105495E+03  0.7546771E-02  0.1259556E+00
         21   -1    0    0  501  502  0.00000000000E+00  0.00000000000E+00  0.25932966320E+03  0.25932966320E+03  0.00000000000E+00 0.  1.
          2   -1    0    0  504    0 -0.00000000000E+00 -0.00000000000E+00 -0.33523205551E+03  0.33523205551E+03  0.00000000000E+00 0.  1.
         21    1    1    2  503  505 -0.81346458003E+02  0.32398988829E+02  0.99950255658E+02  0.13287962339E+03  0.00000000000E+00 0.  1.
         21    1    1    2  504  503 -0.56286067320E+02 -0.93939133665E+01  0.74904750644E+02  0.94165219968E+02  0.00000000000E+00 0. -1.
         21    1    1    2  505  502  0.45515015364E+02  0.21206589548E+02  0.36859581230E+02  0.62289363396E+02  0.00000000000E+00 0. -1.
          2    1    1    2  501    0  0.92117509958E+02 -0.44211665011E+02 -0.28761697983E+03  0.30522751195E+03  0.00000000000E+00 0.  1.
<scales pt_clust_3="31.29881" pt_clust_4="31.29881" pt_clust_5="50.21291" pt_clust_6="103.52799"></scales>
<clustering>
<clus scale="   31.299">  3  4 -1 -1</clus>
<clus scale="   50.213">  1  5  2 -1</clus>
<clus scale="  103.528">  2  6  1 -1</clus>
<clus scale="   50.213">  1  3  2 -1</clus>
</clustering>
</event>
<event>
 6    0  0.6851428E+002  0.1599364E+03  0.7546771E-02  0.1188769E+00
         21   -1    0    0  503  502  0.00000000000E+00  0.00000000000E+00  0.86079716582E+03  0.86079716582E+03  0.00000000000E+00 0. -1.
          1   -1    0    0  505    0 -0.00000000000E+00 -0.00000000000E+00 -0.32136608893E+03  0.32136608893E+03  0.00000000000E+00 0.  1.
         21    1    1    2  503  504 -0.31621832894E+02 -0.26845334099E+01  0.70663393324E+02  0.77462650299E+02  0.00000000000E+00 0. -1.
         21    1    1    2  504  501 -0.51437468659E+02  0.17059826198E+03  0.17327074211E+03  0.24854039962E+03  0.00000000000E+00 0.  1.
         21    1    1    2  505  502  0.32862511960E+02 -0.15248293397E+03  0.56266181757E+03  0.58388295984E+03  0.00000000000E+00 0. -1.
          1    1    1    2  501    0  0.50196789593E+02 -0.15430794596E+02 -0.26716487612E+03  0.27227724499E+03  0.00000000000E+00 0.  1.
<scales pt_clust_3="31.73558" pt_clust_4="159.93639" pt_clust_5="14000.00000" pt_clust_6="52.41939"></scales>
<clustering>
<clus scale="   31.736">  1  3  2 -1</clus>
<clus scale="   52.419">  2  6  1 -1</clus>
<clus scale="  159.936">  2  4  1 -1</clus>
<clus scale="   31.736">  1  3  2 -1</clus>
</clustering>
</event>
<event>
 6    0  0.6851428E+002  0.7620221E+02  0.7546771E-02  0.1340188E+00
         21   -1    0    0  503  502  0.00000000000E+00  0.00000000000E+00  0.78717116471E+02  0.78717116471E+02  0.00000000000E+00 0. -1.
          2   -1    0    0  505    0 -0.00000000000E+00 -0.00000000000E+00 -0.19399121326E+04  0.19399121326E+04  0.00000000000E+00 0. -1.
         21    1    1    2  503  504 -0.41102744799E+02 -0.30047143914E+01  0.49740650103E+02  0.64595636163E+02  0.00000000000E+00 0. -1.
         21    1    1    2  504  501 -0.29270444946E+02  0.31212102505E+02 -0.15065762291E+03  0.15661632620E+03  0.00000000000E+00 0. -1.
         21    1    1    2  505  502  0.98298261824E+02  0.42621487922E+02 -0.14470802844E+03  0.18005430571E+03  0.00000000000E+00 0. -1.
          2    1    1    2  501    0 -0.27925072079E+02 -0.70828876036E+02 -0.16155700148E+04  0.16173629810E+04  0.00000000000E+00 0. -1.
<scales pt_clust_3="41.21242" pt_clust_4="46.58506" pt_clust_5="14000.00000" pt_clust_6="76.20221"></scales>
<clustering>
<clus scale="   41.212">  1  3  2 -1</clus>
<clus scale="   46.585">  1  4  2 -1</clus>
<clus scale="   76.202">  2  6  1 -1</clus>
<clus scale="   41.212">  1  3  2 -1</clus>
</clustering>
</event>
<event>
 6    0  0.6851428E+002  0.9602283E+02  0.7546771E-02  0.1288889E+00
          2   -1    0    0  505    0 -0.00000000000E+00  0.00000000000E+00  0.19343754509E+04  0.19343754509E+04  0.00000000000E+00 0. -1.
         21   -1    0    0  503  502  0.00000000000E+00 -0.00000000000E+00 -0.75072563515E+02  0.75072563515E+02  0.00000000000E+00 0. -1.
         21    1    1    2  503  504 -0.11746436667E+02  0.95817947968E+02 -0.10704241887E+02  0.97126920684E+02  0.00000000000E+00 0. -1.
         21    1    1    2  504  501  0.43207646688E+02 -0.67381820957E+02  0.98429262522E+02  0.12686816089E+03  0.00000000000E+00 0. -1.
         21    1    1    2  505  502  0.11060806617E+02  0.29183698890E+02  0.33072409363E+02  0.45473222725E+02  0.00000000000E+00 0. -1.
          2    1    1    2  501    0 -0.42522016638E+02 -0.57619825902E+02  0.17385054574E+04  0.17399797101E+04  0.00000000000E+00 0. -1.
<scales pt_clust_3="14000.00000" pt_clust_4="96.02283" pt_clust_5="31.20945" pt_clust_6="71.28966"></scales>
<clustering>
<clus scale="   31.209">  2  5  1 -1</clus>
<clus scale="   71.290">  1  6  2 -1</clus>
<clus scale="   96.023">  1  4  2 -1</clus>
<clus scale="   31.209">  2  3  1 -1</clus>
</clustering>
</event>
<event>
 6    0  0.6851428E+002  0.6240010E+02  0.7546771E-02  0.1388027E+00
          3   -1    0    0  504    0 -0.00000000000E+00  0.00000000000E+00  0.18676240480E+03  0.18676240480E+03  0.00000000000E+00 0.  1.
         21   -1    0    0  503  502  0.00000000000E+00 -0.00000000000E+00 -0.26675526803E+03  0.26675526803E+03  0.00000000000E+00 0. -1.
         21    1    1    2  503  501 -0.41029125228E+02 -0.43934988516E+02 -0.18852958698E+03  0.19788147336E+03  0.00000000000E+00 0. -1.
         21    1    1    2  504  505 -0.33429669226E+02  0.99723865223E+01  0.26372009072E+02  0.43731843546E+02  0.00000000000E+00 0. -1.
         21    1    1    2  505  502 -0.48408067704E+02 -0.18346023145E+02 -0.56568226111E+01  0.52076071531E+02  0.00000000000E+00 0.  1.
          3    1    1    2  501    0  0.12286686216E+03  0.52308625138E+02  0.87821537293E+02  0.15982828440E+03  0.00000000000E+00 0.  1.
<scales pt_clust_3="62.40010" pt_clust_4="34.88540" pt_clust_5="56.10318" pt_clust_6="14000.00000"></scales>
<clustering>
<clus scale="   34.885">  1  4  2 -1</clus>
<clus scale="   56.103">  1  5  2 -1</clus>
<clus scale="   62.400">  2  3  1 -1</clus>
<clus scale="   62.400">  2  3  1 -1</clus>
</clustering>
</event>
<event>
 6    0  0.6851428E+002  0.2438128E+03  0.7546771E-02  0.1117279E+00
          1   -1    0    0  505    0 -0.00000000000E+00  0.00000000000E+00  0.17493266962E+04  0.17493266962E+04  0.00000000000E+00 0. -1.
         21   -1    0    0  503  502  0.00000000000E+00 -0.00000000000E+00 -0.11301175800E+04  0.11301175800E+04  0.00000000000E+00 0.  1.
         21    1    1    2  503  504 -0.96076197574E+02  0.10155482450E+02 -0.25617495652E+03  0.27378710327E+03  0.00000000000E+00 0.  1.
         21    1    1    2  504  501 -0.14077615215E+03 -0.10336126768E+02 -0.52340505086E+03  0.54210479411E+03  0.00000000000E+00 0.  1.
         21    1    1    2  505  502  0.40215809654E+01  0.58924619624E+02 -0.32135055023E+03  0.32673301034E+03  0.00000000000E+00 0.  1.
          1    1    1    2  501    0  0.23283076875E+03 -0.58743975305E+02  0.17201396738E+04  0.17368193685E+04  0.00000000000E+00 0. -1.
<scales pt_clust_3="35.44435" pt_clust_4="35.44435" pt_clust_5="59.06170" pt_clust_6="240.01905"></scales>
<clustering>
<clus scale="   35.444">  3  4 -1 -1</clus>
<clus scale="   59.062">  2  5  1 -1</clus>
<clus scale="  240.019">  1  6  2 -1</clus>
<clus scale="   59.062">  2  3  1 -1</clus>
</clustering>
</event>
<event>
 6    0  0.6851428E+002  0.2347651E+03  0.7546771E-02  0.1123330E+00
          2   -1    0    0  504    0 -0.00000000000E+00  0.00000000000E+00  0.44791215221E+04  0.44791215221E+04  0.00000000000E+00 0. -1.
         21   -1    0    0  505  502  0.00000000000E+00 -0.00000000000E+00 -0.32576684429E+02  0.32576684429E+02  0.00000000000E+00 0. -1.
         21    1    1    2  503  502  0.45173360893E+02  0.72615106543E+01  0.11923795880E+03  0.12771473247E+03  0.00000000000E+00 0.  1.
         21    1    1    2  504  503  0.22007956607E+02 -0.42049185191E+02  0.61735214069E+03  0.61917376377E+03  0.00000000000E+00 0. -1.
         21    1    1    2  505  501 -0.19259589646E+03 -0.17636008264E+03  0.74015291025E+03  0.78487093756E+03  0.00000000000E+00 0. -1.
          2    1    1    2  501    0  0.12541457896E+03  0.21114775718E+03  0.29698018279E+04  0.29799387727E+04  0.00000000000E+00 0. -1.
<scales pt_clust_3="45.75327" pt_clust_4="47.94711" pt_clust_5="234.76507" pt_clust_6="14000.00000"></scales>
<clustering>
<clus scale="   45.753">  2  3  1 -1</clus>
<clus scale="   47.947">  1  4  2 -1</clus>
<clus scale="  234.765">  2  5  1 -1</clus>
<clus scale="   45.753">  2  3  1 -1</clus>
</clustering>
</event>
<event>
 6    0  0.6851428E+002  0.1675795E+03  0.7546771E-02  0.1180396E+00
          1   -1    0    0  502    0 -0.00000000000E+00  0.00000000000E+00  0.28591181644E+04  0.28591181644E+04  0.00000000000E+00 0.  1.
         21   -1    0    0  504  502  0.00000000000E+00 -0.00000000000E+00 -0.79651593885E+02  0.79651593885E+02  0.00000000000E+00 0.  1.
         21    1    1    2  503  505 -0.73285989884E+02  0.30013466883E+02  0.18331035863E+02  0.81287584436E+02  0.00000000000E+00 0.  1.
         21    1    1    2  504  503 -0.26130758720E+02  0.17520709515E+02 -0.27680204630E+02  0.41904481163E+02  0.00000000000E+00 0.  1.
         21    1    1    2  505  501 -0.52975443218E+02  0.92614301314E+01  0.54979981505E+02  0.76908842395E+02  0.00000000000E+00 0.  1.
          1    1    1    2  501    0  0.15239219182E+03 -0.56795606529E+02  0.27338357578E+04  0.27386688503E+04  0.00000000000E+00 0.  1.
<scales pt_clust_3="36.15947" pt_clust_4="31.46096" pt_clust_5="36.15947" pt_clust_6="160.98370"></scales>
<clustering>
<clus scale="   31.461">  2  4  1 -1</clus>
<clus scale="   36.159">  3  5 -1 -1</clus>
<clus scale="  160.984">  1  6  2 -1</clus>
<clus scale="   31.461">  2  3  1 -1</clus>
</clustering>
</event>
<event>
 6    0  0.6851428E+002  0.1794351E+03  0.7546771E-02  0.1168351E+00
         21   -1    0    0  501  502  0.00000000000E+00  0.00000000000E+00  0.11500000901E+03  0.11500000901E+03  0.00000000000E+00 0. -1.
         -2   -1    0    0    0  501 -0.00000000000E+00 -0.00000000000E+00 -0.53003512936E+03  0.53003512936E+03  0.00000000000E+00 0. -1.
         21    1    1    2  503  505  0.54590982341E+01  0.64893909720E+02  0.40105831128E+01  0.65246502199E+02  0.00000000000E+00 0. -1.
         21    1    1    2  504  503  0.27935706714E+02  0.10666598615E+03 -0.74454140349E+02  0.13304681630E+03  0.00000000000E+00 0. -1.
         21    1    1    2  505  502 -0.62463846944E+02 -0.48247642583E+01  0.19930490150E+00  0.62650221450E+02  0.00000000000E+00 0. -1.
         -2    1    1    2    0  504  0.29069041996E+02 -0.16673513161E+03 -0.34479086801E+03  0.38409159842E+03  0.00000000000E+00 0. -1.
<scales pt_clust_3="47.43627" pt_clust_4="47.43627" pt_clust_5="62.64990" pt_clust_6="168.48453"></scales>
<clustering>
<clus scale="   47.436">  3  4 -1 -1</clus>
<clus scale="   62.650">  1  5  2 -1</clus>
<clus scale="  168.485">  2  6  1 -1</clus>
<clus scale="   62.650">  1  3  2 -1</clus>
</clustering>
</event>
<event>
 6    0  0.6851428E+002  0.1327052E+03  0.7546771E-02  0.1223496E+00
         21   -1    0    0  504  502  0.00000000000E+00  0.00000000000E+00  0.57655690968E+02  0.57655690968E+02  0.00000000000E+00 0.  1.
          2   -1    0    0  505    0 -0.00000000000E+00 -0.00000000000E+00 -0.10119592018E+04  0.10119592018E+04  0.00000000000E+00 0.  1.
         21    1    1    2  503  501 -0.51098113693E+02  0.79944317594E+02 -0.91363965348E+02  0.13171744494E+03  0.00000000000E+00 0.  1.
         21    1    1    2  504  503 -0.59622707792E+01  0.42549042201E+02 -0.94627331789E+01  0.43994465382E+02  0.00000000000E+00 0.  1.
         21    1    1    2  505  502 -0.39922174306E+02 -0.46425708990E+02 -0.44755733717E+02  0.75843273644E+02  0.00000000000E+00 0.  1.
          2    1    1    2  501    0  0.96982558778E+02 -0.76067650805E+02 -0.80872107863E+03  0.81805970884E+03  0.00000000000E+00 0.  1.
<scales pt_clust_3="33.29571" pt_clust_4="33.29571" pt_clust_5="61.23011" pt_clust_6="123.13627"></scales>
<clustering>
<clus scale="   33.296">  3  4 -1 -1</clus>
<clus scale="   61.230">  1  5  2 -1</clus>
<clus scale="  123.136">  2  6  1 -1</clus>
<clus scale="   61.230">  1  3  2 -1</clus>
</clustering>
</event>
<event>
 6    0  0.6851428E+002  0.1438078E+03  0.7546771E-02  0.1208295E+00
         21   -1    0    0  503  502  0.00000000000E+00  0.00000000000E+00  0.13784183372E+03  0.13784183372E+03  0.00000000000E+00 0.  1.
          2   -1    0    0  505    0 -0.00000000000E+00 -0.00000000000E+00 -0.33042967828E+03  0.33042967828E+03  0.00000000000E+00 0.  1.
         21    1    1    2  503  501  0.30305516829E+02 -0.14403862005E+02  0.54253255875E+02  0.63791154277E+02  0.00000000000E+00 0.  1.
         21    1    1    2  504  502  0.94015243495E+01  0.70046382466E+02  0.66400524900E+00  0.70677614983E+02  0.00000000000E+00 0.  1.
         21    1    1    2  505  504 -0.23336223165E+02  0.75284316254E+02 -0.41266227226E+02  0.88967460877E+02  0.00000000000E+00 0.  1.
          2    1    1    2  501    0 -0.16370818014E+02 -0.13092683672E+03 -0.20623887846E+03  0.24483528186E+03  0.00000000000E+00 0.  1.
<scales pt_clust_3="33.55437" pt_clust_4="48.55982" pt_clust_5="48.55982" pt_clust_6="134.75109"></scales>
<clustering>
<clus scale="   33.554">  1  3  2 -1</clus>
<clus scale="   48.560">  4  5 -1 -1</clus>
<clus scale="  134.751">  2  6  1 -1</clus>
<clus scale="   33.554">  1  3  2 -1</clus>
</clustering>
</event>
<event>
 6    0  0.6851428E+002  0.1737359E+03  0.7546771E-02  0.1174007E+00
         21   -1    0    0  504  502  0.00000000000E+00  0.00000000000E+00  0.52023541587E+03  0.52023541587E+03  0.00000000000E+00 0.  1.
          2   -1    0    0  503    0 -0.00000000000E+00 -0.00000000000E+00 -0.88924387495E+03  0.88924387495E+03  0.00000000000E+00 0.  1.
         21    1    1    2  503  502  0.39214989874E+02 -0.12371283577E+03  0.15494476164E+03  0.20211521547E+03  0.00000000000E+00 0. -1.
         21    1    1    2  504  505  0.27848320573E+02 -0.29171398635E+02  0.22055015320E+03  0.22420720224E+03  0.00000000000E+00 0.  1.
         21    1    1    2  505  501  0.83735331620E+02  0.59009682105E+02  0.86072328333E+02  0.13379908089E+03  0.00000000000E+00 0. -1.
          2    1    1    2  501    0 -0.15079864207E+03  0.93874552302E+02 -0.83057570225E+03  0.84935779221E+03  0.00000000000E+00 0.  1.
<scales pt_clust_3="173.73591" pt_clust_4="40.32988" pt_clust_5="105.66917" pt_clust_6="14000.00000"></scales>
<clustering>
<clus scale="   40.330">  1  4  2 -1</clus>
<clus scale="  105.669">  1  5  2 -1</clus>
<clus scale="  173.736">  1  3  2 -1</clus>
<clus scale="   40.330">  1  3  2 -1</clus>
</clustering>
</event>
<event>
 6    0  0.6851428E+002  0.9034990E+02  0.7546771E-02  0.1302007E+00
         -2   -1    0    0    0  501 -0.00000000000E+00  0.00000000000E+00  0.17578192496E+03  0.17578192496E+03  0.00000000000E+00 0. -1.
         21   -1    0    0  505  502  0.00000000000E+00 -0.00000000000E+00 -0.17753227245E+03  0.17753227245E+03  0.00000000000E+00 0.  1.
         21    1    1    2  503  501  0.66201390679E+02 -0.46648589824E+02  0.18645945864E+02  0.83104671093E+02  0.00000000000E+00 0.  1.
         21    1    1    2  504  503  0.12010970437E+02 -0.50921463135E+02  0.10231233227E+02  0.53309820408E+02  0.00000000000E+00 0.  1.
         21    1    1    2  505  504 -0.60516067288E+02  0.38598508601E+02 -0.10067306698E+03  0.12364103559E+03  0.00000000000E+00 0.  1.
         -2    1    1    2    0  502 -0.17696293827E+02  0.58971544358E+02  0.70045540401E+02  0.93258670317E+02  0.00000000000E+00 0. -1.
<scales pt_clust_3="37.16391" pt_clust_4="37.16391" pt_clust_5="77.62198" pt_clust_6="61.56949"></scales>
<clustering>
<clus scale="   37.164">  3  4 -1 -1</clus>
<clus scale="   61.569">  1  6  2 -1</clus>
<clus scale="   77.622">  2  5  1 -1</clus>
<clus scale="   77.622">  2  3  1 -1</clus>
</clustering>
</event>
<event>
 6    0  0.6851428E+002  0.1038743E+03  0.7546771E-02  0.1272353E+00
          1   -1    0    0  503    0 -0.00000000000E+00  0.00000000000E+00  0.10554384674E+04  0.10554384674E+04  0.00000000000E+00 0. -1.
         21   -1    0    0  505  502  0.00000000000E+00 -0.00000000000E+00 -0.81419458854E+02  0.81419458854E+02  0.00000000000E+00 0.  1.
         21    1    1    2  503  502  0.14055187625E+02  0.12141280414E+03  0.33249084577E+01  0.12226885263E+03  0.00000000000E+00 0.  1.
         21    1    1    2  504  501 -0.31698550791E+02 -0.39116559355E+02  0.60664387282E+02  0.78835723009E+02  0.00000000000E+00 0. -1.
         21    1    1    2  505  504  0.46596118350E+02 -0.66584560590E+02  0.11937618278E+03  0.14441390158E+03  0.00000000000E+00 0. -1.
          1    1    1    2  501    0 -0.28952755185E+02 -0.15711684191E+02  0.79065352998E+03  0.79133944899E+03  0.00000000000E+00 0. -1.
<scales pt_clust_3="14000.00000" pt_clust_4="58.47008" pt_clust_5="103.87435" pt_clust_6="32.94115"></scales>
<clustering>
<clus scale="   32.941">  1  6  2 -1</clus>
<clus scale="   58.470">  1  4  2 -1</clus>
<clus scale="  103.874">  1  5  2 -1</clus>
<clus scale="  103.874">  2  3  1 -1</clus>
</clustering>
</event>
<event>
 6    0  0.6851428E+002  0.4516935E+03  0.7546771E-02  0.1027218E+00
         21   -1    0    0  501  502  0.00000000000E+00  0.00000000000E+00  0.90054338173E+03  0.90054338173E+03  0.00000000000E+00 0.  1.
          2   -1    0    0  503    0 -0.00000000000E+00 -0.00000000000E+00 -0.17841222731E+04  0.17841222731E+04  0.00000000000E+00 0. -1.
         21    1    1    2  503  504 -0.30601860983E+02 -0.83498078077E+02  0.23394335783E+03  0.25027564327E+03  0.00000000000E+00 0.  1.
         21    1    1    2  504  505  0.39472248659E+02 -0.30591404448E+03  0.53925833540E+03  0.62124150966E+03  0.00000000000E+00 0.  1.
         21    1    1    2  505  502 -0.31091342829E+02 -0.52338065058E+02  0.31041030484E+02  0.68333668323E+02  0.00000000000E+00 0.  1.
          2    1    1    2  501    0  0.22220955153E+02  0.44175018761E+03 -0.16878216151E+04  0.17448148335E+04  0.00000000000E+00 0. -1.
<scales pt_clust_3="53.64293" pt_clust_4="53.64293" pt_clust_5="60.87647" pt_clust_6="440.50675"></scales>
<clustering>
<clus scale="   53.643">  3  4 -1 -1</clus>
<clus scale="   60.876">  1  5  2 -1</clus>
<clus scale="  440.507">  2  6  1 -1</clus>
<clus scale="   60.876">  1  3  2 -1</clus>
</clustering>
</event>
<event>
 6    0  0.6851428E+002  0.1113622E+03  0.7546771E-02  0.1258068E+00
         21   -1    0    0  501  502  0.00000000000E+00  0.00000000000E+00  0.18377588279E+03  0.18377588279E+03  0.00000000000E+00 0. -1.
          2   -1    0    0  503    0 -0.00000000000E+00 -0.00000000000E+00 -0.11594987015E+04  0.11594987015E+04  0.00000000000E+00 0. -1.
         21    1    1    2  503  504 -0.15584124014E+02  0.66422011962E+02 -0.41740209535E+03  0.42294119899E+03  0.00000000000E+00 0. -1.
         21    1    1    2  504  505 -0.51365570547E+02  0.12437588300E+03 -0.22333388602E+03  0.26074088049E+03  0.00000000000E+00 0. -1.
         21    1    1    2  505  502  0.30778342328E+02 -0.52919066891E+02  0.14579408579E+03  0.15812542315E+03  0.00000000000E+00 0. -1.
          2    1    1    2  501    0  0.36171352233E+02 -0.13787882807E+03 -0.48078092312E+03  0.50146708166E+03  0.00000000000E+00 0. -1.
<scales pt_clust_3="63.14816" pt_clust_4="111.36219" pt_clust_5="61.21874" pt_clust_6="14000.00000"></scales>
<clustering>
<clus scale="   61.219">  1  5  2 -1</clus>
<clus scale="   63.148">  2  3  1 -1</clus>
<clus scale="  111.362">  1  4  2 -1</clus>
<clus scale="   61.219">  1  3  2 -1</clus>
</clustering>
</event>
<event>
 6    0  0.6851428E+002  0.1384840E+03  0.7546771E-02  0.1215384E+00
          2   -1    0    0  503    0 -0.00000000000E+00  0.00000000000E+00  0.15414701426E+04  0.15414701426E+04  0.00000000000E+00 0.  1.
         21   -1    0    0  505  502  0.00000000000E+00 -0.00000000000E+00 -0.51466838217E+02  0.51466838217E+02  0.00000000000E+00 0.  1.
         21    1    1    2  503  502 -0.71428348264E+02  0.17041244373E+03  0.85050116688E+03  0.87034168278E+03  0.00000000000E+00 0.  1.
         21    1    1    2  504  501 -0.49859389996E+02 -0.10860497671E+03  0.33266634615E+03  0.35347969899E+03  0.00000000000E+00 0.  1.
         21    1    1    2  505  504  0.81367621432E+02 -0.42898409725E+02  0.42876301251E+02  0.10148566689E+03  0.00000000000E+00 0.  1.
          2    1    1    2  501    0  0.39920116827E+02 -0.18909057290E+02  0.26395949013E+03  0.26762993219E+03  0.00000000000E+00 0.  1.
<scales pt_clust_3="138.48402" pt_clust_4="14000.00000" pt_clust_5="94.48063" pt_clust_6="44.17203"></scales>
<clustering>
<clus scale="   44.172">  1  6  2 -1</clus>
<clus scale="   94.481">  2  5  1 -1</clus>
<clus scale="  138.484">  1  3  2 -1</clus>
<clus scale="   94.481">  2  3  1 -1</clus>
</clustering>
</event>
<event>
 6    0  0.6851428E+002  0.1137975E+03  0.7546771E-02  0.1253695E+00
         -2   -1    0    0    0  501 -0.00000000000E+00  0.00000000000E+00  0.80175126606E+02  0.80175126606E+02  0.00000000000E+00 0.  1.
         21   -1    0    0  504  502  0.00000000000E+00 -0.00000000000E+00 -0.21036419518E+04  0.21036419518E+04  0.00000000000E+00 0.  1.
         21    1    1    2  503  505  0.54076465142E+02  0.49656512350E+02 -0.50322865479E+03  0.50855590872E+03  0.00000000000E+00 0.  1.
         21    1    1    2  504  501 -0.94567410845E+02 -0.33142415856E+02 -0.94235231850E+03  0.94766518724E+03  0.00000000000E+00 0.  1.
         21    1    1    2  505  502  0.24892056758E+02  0.33194822861E+02 -0.64292530291E+03  0.64426272271E+03  0.00000000000E+00 0.  1.
         -2    1    1    2    0  503  0.15598888944E+02 -0.49708919355E+02  0.65039450972E+02  0.83333259761E+02  0.00000000000E+00 0.  1.
<scales pt_clust_3="35.43282" pt_clust_4="103.57771" pt_clust_5="35.43282" pt_clust_6="52.09896"></scales>
<clustering>
<clus scale="   35.433">  3  5 -1 -1</clus>
<clus scale="   52.099">  1  6  2 -1</clus>
<clus scale="  103.578">  2  4  1 -1</clus>
<clus scale="  103.578">  2  3  1 -1</clus>
</clustering>
</event>
<event>
 6    0  0.6851428E+002  0.1322122E+03  0.7546771E-02  0.1224210E+00
          2   -1    0    0  503    0 -0.00000000000E+00  0.00000000000E+00  0.86502441530E+03  0.86502441530E+03  0.00000000000E+00 0.  1.
         21   -1    0    0  505  502  0.00000000000E+00 -0.00000000000E+00 -0.25835699922E+03  0.25835699922E+03  0.00000000000E+00 0.  1.
         21    1    1    2  503  502  0.14450862351E+03  0.10951922223E+03  0.61110001478E+02  0.19134166976E+03  0.00000000000E+00 0.  1.
         21    1    1    2  504  501 -0.30814171821E+02 -0.70416242428E+02 -0.96300991150E+02  0.12321461471E+03  0.00000000000E+00 0.  1.
         21    1    1    2  505  504 -0.44981511389E+02 -0.10889129992E+02 -0.74999212100E+02  0.88129401078E+02  0.00000000000E+00 0.  1.
          2    1    1    2  501    0 -0.68712940302E+02 -0.28213849806E+02  0.71685761785E+03  0.72069572897E+03  0.00000000000E+00 0.  1.
<scales pt_clust_3="120.47030" pt_clust_4="42.26672" pt_clust_5="42.26672" pt_clust_6="74.27981"></scales>
<clustering>
<clus scale="   42.267">  4  5 -1 -1</clus>
<clus scale="   74.280">  1  6  2 -1</clus>
<clus scale="  120.470">  1  3  2 -1</clus>
<clus scale="  132.212">  2  3  1 -1</clus>
</clustering>
</event>
<event>
 6    0  0.6851428E+002  0.1154172E+03  0.7546771E-02  0.1250855E+00
         21   -1    0    0  504  502  0.00000000000E+00  0.00000000000E+00  0.63497342648E+03  0.63497342648E+03  0.00000000000E+00 0.  1.
          4   -1    0    0  503    0 -0.00000000000E+00 -0.00000000000E+00 -0.68358820250E+02  0.68358820250E+02  0.00000000000E+00 0.  1.
         21    1    1    2  503  505 -0.41265465263E+02  0.86048906585E+01  0.85419647612E+01  0.43009858505E+02  0.00000000000E+00 0.  1.
         21    1    1    2  504  501 -0.20943757808E+02 -0.54954230090E+02  0.27850035907E+03  0.28464198284E+03  0.00000000000E+00 0.  1.
         21    1    1    2  505  502 -0.19074193606E+02  0.11639304469E+03  0.62371739420E+02  0.13342188573E+03  0.00000000000E+00 0.  1.
          4    1    1    2  501    0  0.81283416678E+02 -0.70043705256E+02  0.21720054298E+03  0.24225851965E+03  0.00000000000E+00 0.  1.
<scales pt_clust_3="42.15309" pt_clust_4="59.26243" pt_clust_5="14000.00000" pt_clust_6="115.41722"></scales>
<clustering>
<clus scale="   42.153">  2  3  1 -1</clus>
<clus scale="   59.262">  1  4  2 -1</clus>
<clus scale="  115.417">  1  6  2 -1</clus>
<clus scale="   59.262">  1  3  2 -1</clus>
</clustering>
</event>
<event>
 6    0  0.6851428E+002  0.8389300E+02  0.7546771E-02  0.1318353E+00
         21   -1    0    0  504  502  0.00000000000E+00  0.00000000000E+00  0.41374933071E+02  0.41374933071E+02  0.00000000000E+00 0.  1.
          2   -1    0    0  505    0 -0.00000000000E+00 -0.00000000000E+00 -0.17246170483E+04  0.17246170483E+04  0.00000000000E+00 0.  1.
         21    1    1    2  503  501 -0.27642394924E+02 -0.11403643945E+03 -0.51311738418E+03  0.52636286103E+03  0.00000000000E+00 0.  1.
         21    1    1    2  504  503  0.33014606565E+02  0.12254285729E+02  0.20519187431E+02  0.40757438808E+02  0.00000000000E+00 0.  1.
         21    1    1    2  505  502 -0.25802516707E+02  0.62120323898E+02 -0.31548639173E+03  0.32257769277E+03  0.00000000000E+00 0.  1.
          2    1    1    2  501    0  0.20430305066E+02  0.39661829825E+02 -0.87515752678E+03  0.87629398879E+03  0.00000000000E+00 0.  1.
<scales pt_clust_3="14000.00000" pt_clust_4="35.21550" pt_clust_5="83.89300" pt_clust_6="46.00839"></scales>
<clustering>
<clus scale="   35.216">  1  4  2 -1</clus>
<clus scale="   46.008">  2  6  1 -1</clus>
<clus scale="   83.893">  1  5  2 -1</clus>
<clus scale="   35.216">  1  3  2 -1</clus>
</clustering>
</event>
<event>
 6    0  0.6851428E+002  0.1705301E+03  0.7546771E-02  0.1177296E+00
         21   -1    0    0  505  502  0.00000000000E+00  0.00000000000E+00  0.12430249163E+03  0.12430249163E+03  0.00000000000E+00 0.  1.
          1   -1    0    0  504    0 -0.00000000000E+00 -0.00000000000E+00 -0.21508478159E+04  0.21508478159E+04  0.00000000000E+00 0.  1.
         21    1    1    2  503  501 -0.11994564594E+03 -0.14614717831E+03 -0.36366996109E+03  0.40988022190E+03  0.00000000000E+00 0.  1.
         21    1    1    2  504  502  0.11384623380E+03 -0.16627007620E+02  0.51553180107E+02  0.12607597992E+03  0.00000000000E+00 0.  1.
         21    1    1    2  505  503  0.28461342250E+02 -0.12613820607E+02 -0.23393780733E+02  0.38941307758E+02  0.00000000000E+00 0.  1.
          1    1    1    2  501    0 -0.22361930109E+02  0.17538800654E+03 -0.16910347626E+04  0.17002527979E+04  0.00000000000E+00 0.  1.
<scales pt_clust_3="170.53008" pt_clust_4="138.05539" pt_clust_5="31.13128" pt_clust_6="14000.00000"></scales>
<clustering>
<clus scale="   31.131">  1  5  2 -1</clus>
<clus scale="  138.055">  1  4  2 -1</clus>
<clus scale="  170.530">  1  3  2 -1</clus>
<clus scale="   31.131">  1  3  2 -1</clus>
</clustering>
</event>
<event>
 6    0  0.6851428E+002  0.1605725E+03  0.7546771E-02  0.1188052E+00
         21   -1    0    0  501  502  0.00000000000E+00  0.00000000000E+00  0.61563563817E+03  0.61563563817E+03  0.00000000000E+00 0. -1.
          1   -1    0    0  503    0 -0.00000000000E+00 -0.00000000000E+00 -0.76546432035E+02  0.76546432035E+02  0.00000000000E+00 0. -1.
         21    1    1    2  503  504 -0.12452394951E+03 -0.30115287386E+02  0.93175381202E+02  0.15841337127E+03  0.00000000000E+00 0. -1.
         21    1    1    2  504  505 -0.19410704734E+02 -0.40629218596E+02  0.43413122337E+02  0.62547646263E+02  0.00000000000E+00 0. -1.
         21    1    1    2  505  502  0.82810241328E+01  0.49166477191E+02  0.28832796693E+03  0.29260713312E+03  0.00000000000E+00 0. -1.
          1    1    1    2  501    0  0.13565363011E+03  0.21578028792E+02  0.11417273567E+03  0.17861391955E+03  0.00000000000E+00 0. -1.
<scales pt_clust_3="39.52731" pt_clust_4="39.52731" pt_clust_5="49.85898" pt_clust_6="146.07578"></scales>
<clustering>
<clus scale="   39.527">  3  4 -1 -1</clus>
<clus scale="   49.859">  1  5  2 -1</clus>
<clus scale="  146.076">  2  6  1 -1</clus>
<clus scale="   49.859">  1  3  2 -1</clus>
</clustering>
</event>
<event>
 6    0  0.6851428E+002  0.9512614E+02  0.7546771E-02  0.1290892E+00
         21   -1    0    0  505  502  0.00000000000E+00  0.00000000000E+00  0.11080166279E+04  0.11080166279E+04  0.00000000000E+00 0. -1.
          2   -1    0    0  504    0 -0.00000000000E+00 -0.00000000000E+00 -0.95693327403E+03  0.95693327403E+03  0.00000000000E+00 0. -1.
         21    1    1    2  503  502 -0.75090996936E+02 -0.48174679320E+02  0.90158567874E+03  0.90598906929E+03  0.00000000000E+00 0. -1.
         21    1    1    2  504  503 -0.47799288376E+02  0.11408721598E+03 -0.13423378416E+02  0.12442207163E+03  0.00000000000E+00 0. -1.
         21    1    1    2  505  501  0.11860339830E+03 -0.24086954686E+02  0.12351138815E+03  0.17292197800E+03  0.00000000000E+00 0. -1.
          2    1    1    2  501    0  0.42868870101E+01 -0.41825581975E+02 -0.86059033462E+03  0.86161678300E+03  0.00000000000E+00 0. -1.
<scales pt_clust_3="89.65593" pt_clust_4="14000.00000" pt_clust_5="95.12614" pt_clust_6="42.04470"></scales>
<clustering>
<clus scale="   42.045">  2  6  1 -1</clus>
<clus scale="   89.656">  1  3  2 -1</clus>
<clus scale="   95.126">  1  5  2 -1</clus>
<clus scale="   89.656">  1  3  2 -1</clus>
</clustering>
</event>
<event>
 6    0  0.6851428E+002  0.1647668E+03  0.7546771E-02  0.1183418E+00
         21   -1    0    0  503  502  0.00000000000E+00  0.00000000000E+00  0.62075707190E+03  0.62075707190E+03  0.00000000000E+00 0.  1.
          1   -1    0    0  504    0 -0.00000000000E+00 -0.00000000000E+00 -0.22566081123E+04  0.22566081123E+04  0.00000000000E+00 0.  1.
         21    1    1    2  503  501 -0.18403228575E+02 -0.19938890128E+03  0.44284542646E+03  0.48601099217E+03  0.00000000000E+00 0.  1.
         21    1    1    2  504  505  0.55909276718E+02  0.12508625412E+03 -0.14138435354E+03  0.19688055673E+03  0.00000000000E+00 0. -1.
         21    1    1    2  505  502 -0.48323843113E+02  0.11530317474E+03  0.97918140009E+02  0.15880169414E+03  0.00000000000E+00 0.  1.
          1    1    1    2  501    0  0.10817794970E+02 -0.41000527573E+02 -0.20352302534E+04  0.20356719412E+04  0.00000000000E+00 0.  1.
<scales pt_clust_3="164.76679" pt_clust_4="113.59928" pt_clust_5="14000.00000" pt_clust_6="42.40363"></scales>
<clustering>
<clus scale="   42.404">  2  6  1 -1</clus>
<clus scale="  113.599">  2  4  1 -1</clus>
<clus scale="  164.767">  1  3  2 -1</clus>
<clus scale="  164.767">  1  3  2 -1</clus>
</clustering>
</event>
<event>
 6    0  0.6851428E+002  0.1067428E+03  0.7546771E-02  0.1266723E+00
         21   -1    0    0  504  502  0.00000000000E+00  0.00000000000E+00  0.27453925283E+03  0.27453925283E+03  0.00000000000E+00 0. -1.
          2   -1    0    0  505    0 -0.00000000000E+00 -0.00000000000E+00 -0.38324213292E+04  0.38324213292E+04  0.00000000000E+00 0. -1.
         21    1    1    2  503  502  0.19257002410E+02  0.42944864530E+02 -0.25943828691E+02  0.53741750795E+02  0.00000000000E+00 0. -1.
         21    1    1    2  504  501  0.87976526731E+02 -0.38078201669E+02  0.24985223889E+03  0.26761158416E+03  0.00000000000E+00 0. -1.
         21    1    1    2  505  503 -0.25727102447E+02  0.58577792822E+02 -0.11345123257E+04  0.11363148590E+04  0.00000000000E+00 0. -1.
          2    1    1    2  501    0 -0.81506426694E+02 -0.63444455683E+02 -0.26472781608E+04  0.26492923881E+04  0.00000000000E+00 0. -1.
<scales pt_clust_3="47.06478" pt_clust_4="14000.00000" pt_clust_5="64.08775" pt_clust_6="106.74283"></scales>
<clustering>
<clus scale="   47.065">  1  3  2 -1</clus>
<clus scale="   64.088">  2  5  1 -1</clus>
<clus scale="  106.743">  2  6  1 -1</clus>
<clus scale="   47.065">  1  3  2 -1</clus>
</clustering>
</event>
<event>
 6    0  0.6851428E+002  0.1213027E+03  0.7546771E-02  0.1240963E+00
         21   -1    0    0  505  502  0.00000000000E+00  0.00000000000E+00  0.45716684133E+03  0.45716684133E+03  0.00000000000E+00 0.  1.
          2   -1    0    0  503    0 -0.00000000000E+00 -0.00000000000E+00 -0.79692356176E+03  0.79692356176E+03  0.00000000000E+00 0. -1.
         21    1    1    2  503  502 -0.21902835346E+02  0.50528780509E+02  0.61741535576E+01  0.55416712534E+02  0.00000000000E+00 0. -1.
         21    1    1    2  504  501  0.27360688716E+02  0.11481553993E+03  0.21150179669E+03  0.24220698896E+03  0.00000000000E+00 0.  1.
         21    1    1    2  505  504  0.38740818051E+02 -0.12709614255E+03  0.17610356072E+03  0.22060540458E+03  0.00000000000E+00 0.  1.
          2    1    1    2  501    0 -0.44198671421E+02 -0.38248177897E+02 -0.73353623140E+03  0.73586129701E+03  0.00000000000E+00 0. -1.
<scales pt_clust_3="55.07170" pt_clust_4="121.30274" pt_clust_5="14000.00000" pt_clust_6="58.40555"></scales>
<clustering>
<clus scale="   55.072">  1  3  2 -1</clus>
<clus scale="   58.406">  2  6  1 -1</clus>
<clus scale="  121.303">  2  4  1 -1</clus>
<clus scale="   55.072">  1  3  2 -1</clus>
</clustering>
</event>
<event>
 6    0  0.6851428E+002  0.1525291E+03  0.7546771E-02  0.1197399E+00
         21   -1    0    0  503  502  0.00000000000E+00  0.00000000000E+00  0.58028458390E+03  0.58028458390E+03  0.00000000000E+00 0.  1.
          2   -1    0    0  505    0 -0.00000000000E+00 -0.00000000000E+00 -0.93552809802E+03  0.93552809802E+03  0.00000000000E+00 0. -1.
         21    1    1    2  503  504  0.53188828455E+02 -0.48596792642E+02  0.19093686180E+03  0.20407739934E+03  0.00000000000E+00 0.  1.
         21    1    1    2  504  501 -0.20944145189E+03  0.66034497008E+02  0.15759350999E+03  0.27029981679E+03  0.00000000000E+00 0.  1.
         21    1    1    2  505  502  0.10892698098E+03  0.34729638068E+02  0.14785324426E+03  0.18690055319E+03  0.00000000000E+00 0.  1.
          2    1    1    2  501    0  0.47325642461E+02 -0.52167342434E+02 -0.85162713016E+03  0.85453491261E+03  0.00000000000E+00 0. -1.
<scales pt_clust_3="77.63671" pt_clust_4="152.52905" pt_clust_5="14000.00000" pt_clust_6="70.43542"></scales>
<clustering>
<clus scale="   70.435">  2  6  1 -1</clus>
<clus scale="   77.637">  1  3  2 -1</clus>
<clus scale="  152.529">  2  4  1 -1</clus>
<clus scale="   77.637">  1  3  2 -1</clus>
</clustering>
</event>
<event>
 6    0  0.6851428E+002  0.1419954E+03  0.7546771E-02  0.1210669E+00
          1   -1    0    0  504    0 -0.00000000000E+00  0.00000000000E+00  0.51072304481E+04  0.51072304481E+04  0.00000000000E+00 0. -1.
         21   -1    0    0  503  502  0.00000000000E+00 -0.00000000000E+00 -0.32708735833E+02  0.32708735833E+02  0.00000000000E+00 0.  1.
         21    1    1    2  503  505 -0.84696283147E+02 -0.91467726925E+02  0.14586144508E+04  0.14639316656E+04  0.00000000000E+00 0. -1.
         21    1    1    2  504  502  0.51171879773E+02  0.49417978160E+02  0.21210981344E+02  0.74233439732E+02  0.00000000000E+00 0.  1.
         21    1    1    2  505  501 -0.14319174682E+02 -0.55295899222E+02  0.30575478547E+03  0.31104447282E+03  0.00000000000E+00 0. -1.
          1    1    1    2  501    0  0.47843578056E+02  0.97345647988E+02  0.32889414947E+04  0.32907296058E+04  0.00000000000E+00 0. -1.
<scales pt_clust_3="53.29092" pt_clust_4="71.13858" pt_clust_5="53.29092" pt_clust_6="118.17292"></scales>
<clustering>
<clus scale="   53.291">  3  5 -1 -1</clus>
<clus scale="   71.139">  2  4  1 -1</clus>
<clus scale="  118.173">  1  6  2 -1</clus>
<clus scale="   71.139">  2  3  1 -1</clus>
</clustering>
</event>
<event>
 6    0  0.6851428E+002  0.1494566E+03  0.7546771E-02  0.1201142E+00
         21   -1    0    0  504  502  0.00000000000E+00  0.00000000000E+00  0.19791189791E+03  0.19791189791E+03  0.00000000000E+00 0.  1.
         -3   -1    0    0    0  501 -0.00000000000E+00 -0.00000000000E+00 -0.44939313495E+03  0.44939313495E+03  0.00000000000E+00 0.  1.
         21    1    1    2  503  505 -0.13881503153E+02  0.13336851008E+03  0.25338934958E+02  0.13646214580E+03  0.00000000000E+00 0.  1.
         21    1    1    2  504  501  0.12832555754E+02 -0.58295315538E+02  0.15298705452E+02  0.61620359374E+02  0.00000000000E+00 0.  1.
         21    1    1    2  505  502 -0.99144202156E+01  0.58511961521E+02  0.52638446444E+02  0.79326864386E+02  0.00000000000E+00 0. -1.
         -3    1    1    2    0  503  0.10963367615E+02 -0.13358515606E+03 -0.34475732390E+03  0.36989566331E+03  0.00000000000E+00 0.  1.
<scales pt_clust_3="37.04114" pt_clust_4="59.69102" pt_clust_5="37.04114" pt_clust_6="138.69832"></scales>
<clustering>
<clus scale="   37.041">  3  5 -1 -1</clus>
<clus scale="   59.691">  1  4  2 -1</clus>
<clus scale="  138.698">  2  6  1 -1</clus>
<clus scale="   59.691">  1  3  2 -1</clus>
</clustering>
</event>
<event>
 6    0  0.6851428E+002  0.3925198E+03  0.7546771E-02  0.1046401E+00
         21   -1    0    0  505  502  0.00000000000E+00  0.00000000000E+00  0.11819211048E+04  0.11819211048E+04  0.00000000000E+00 0. -1.
          2   -1    0    0  502    0 -0.00000000000E+00 -0.00000000000E+00 -0.39924282085E+03  0.39924282085E+03  0.00000000000E+00 0. -1.
         21    1    1    2  503  504  0.83605998370E+02 -0.16853910043E+03  0.75704015938E+02  0.20279667001E+03  0.00000000000E+00 0. -1.
         21    1    1    2  504  501  0.14900223079E+03 -0.14250931351E+03  0.16276096976E+02  0.20682234055E+03  0.00000000000E+00 0. -1.
         21    1    1    2  505  503 -0.74382672290E+02 -0.35271672363E+02  0.77682302281E+03  0.78117276039E+03  0.00000000000E+00 0. -1.
          2    1    1    2  501    0 -0.15822555687E+03  0.34632008631E+03 -0.86124851817E+02  0.39037215465E+03  0.00000000000E+00 0. -1.
<scales pt_clust_3="89.83020" pt_clust_4="89.83020" pt_clust_5="82.32176" pt_clust_6="381.57846"></scales>
<clustering>
<clus scale="   82.322">  1  5  2 -1</clus>
<clus scale="   89.830">  3  4 -1 -1</clus>
<clus scale="  381.578">  2  6  1 -1</clus>
<clus scale="   82.322">  1  3  2 -1</clus>
</clustering>
</event>
<event>
 6    0  0.6851428E+002  0.7468620E+02  0.7546771E-02  0.1344846E+00
         21   -1    0    0  505  502  0.00000000000E+00  0.00000000000E+00  0.20472131955E+03  0.20472131955E+03  0.00000000000E+00 0.  1.
         -2   -1    0    0    0  501 -0.00000000000E+00 -0.00000000000E+00 -0.18020989744E+04  0.18020989744E+04  0.00000000000E+00 0. -1.
         21    1    1    2  503  501  0.23094942683E+02 -0.56254681503E+02 -0.39890745872E+02  0.72727141940E+02  0.00000000000E+00 0.  1.
         21    1    1    2  504  502 -0.10268099364E+03 -0.11738536490E+02  0.12529444162E+03  0.16241883140E+03  0.00000000000E+00 0.  1.
         21    1    1    2  505  503  0.42678657809E+02  0.33286245349E+02  0.27453762403E+02  0.60688969606E+02  0.00000000000E+00 0.  1.
         -2    1    1    2    0  504  0.36907393145E+02  0.34706972644E+02 -0.17102351130E+04  0.17109853510E+04  0.00000000000E+00 0. -1.
<scales pt_clust_3="57.58605" pt_clust_4="14000.00000" pt_clust_5="74.68620" pt_clust_6="50.66290"></scales>
<clustering>
<clus scale="   50.663">  2  6  1 -1</clus>
<clus scale="   57.586">  2  3  1 -1</clus>
<clus scale="   74.686">  1  5  2 -1</clus>
<clus scale="   74.686">  1  3  2 -1</clus>
</clustering>
</event>
<event>
 6    0  0.6851428E+002  0.1076136E+03  0.7546771E-02  0.1265054E+00
         21   -1    0    0  505  502  0.00000000000E+00  0.00000000000E+00  0.15950801788E+04  0.15950801788E+04  0.00000000000E+00 0. -1.
          2   -1    0    0  503    0 -0.00000000000E+00 -0.00000000000E+00 -0.44531642430E+03  0.44531642430E+03  0.00000000000E+00 0. -1.
         21    1    1    2  503  504 -0.46758414496E+02  0.30492315800E+02 -0.39410278253E+02  0.68332281398E+02  0.00000000000E+00 0.  1.
         21    1    1    2  504  502 -0.33462456761E+02  0.53366016495E+01  0.13481716794E+04  0.13485974539E+04  0.00000000000E+00 0. -1.
         21    1    1    2  505  501 -0.76172260305E+02 -0.14494336664E+02  0.20906832049E+03  0.22298399420E+03  0.00000000000E+00 0. -1.
          2    1    1    2  501    0  0.15639313156E+03 -0.21334580786E+02 -0.36806596714E+03  0.40048287367E+03  0.00000000000E+00 0. -1.
<scales pt_clust_3="57.64191" pt_clust_4="33.88533" pt_clust_5="107.61355" pt_clust_6="14000.00000"></scales>
<clustering>
<clus scale="   33.885">  1  4  2 -1</clus>
<clus scale="   57.642">  2  3  1 -1</clus>
<clus scale="  107.614">  1  5  2 -1</clus>
<clus scale="   33.885">  1  3  2 -1</clus>
</clustering>
</event>
<event>
 6    0  0.6851428E+002  0.1196753E+03  0.7546771E-02  0.1243634E+00
          2   -1    0    0  505    0 -0.00000000000E+00  0.00000000000E+00  0.19661433058E+04  0.19661433058E+04  0.00000000000E+00 0. -1.
         21   -1    0    0  503  502  0.00000000000E+00 -0.00000000000E+00 -0.16066660666E+03  0.16066660666E+03  0.00000000000E+00 0. -1.
         21    1    1    2  503  504 -0.35829219642E+02  0.69737685455E+02 -0.10841502060E+03  0.13379422425E+03  0.00000000000E+00 0. -1.
         21    1    1    2  504  501  0.48723811365E+02 -0.13557915668E+03  0.30091318022E+03  0.33362322993E+03  0.00000000000E+00 0. -1.
         21    1    1    2  505  502  0.14827943351E+02  0.50189422743E+02  0.66572403237E+01  0.52755709720E+02  0.00000000000E+00 0. -1.
          2    1    1    2  501    0 -0.27722535074E+02  0.15652048484E+02  0.16063212992E+04  0.16066367486E+04  0.00000000000E+00 0. -1.
<scales pt_clust_3="14000.00000" pt_clust_4="119.67526" pt_clust_5="52.98702" pt_clust_6="31.83592"></scales>
<clustering>
<clus scale="   31.836">  1  6  2 -1</clus>
<clus scale="   52.987">  2  5  1 -1</clus>
<clus scale="  119.675">  1  4  2 -1</clus>
<clus scale="   52.987">  2  3  1 -1</clus>
</clustering>
</event>
<event>
 6    0  0.6851428E+002  0.2631026E+03  0.7546771E-02  0.1105293E+00
          2   -1    0    0  505    0 -0.00000000000E+00  0.00000000000E+00  0.14912345844E+04  0.14912345844E+04  0.00000000000E+00 0.  1.
         21   -1    0    0  504  502  0.00000000000E+00 -0.00000000000E+00 -0.33004946253E+03  0.33004946253E+03  0.00000000000E+00 0. -1.
         21    1    1    2  503  502  0.86966793444E+02  0.17552039072E+02 -0.80436144701E+02  0.11975504420E+03  0.00000000000E+00 0. -1.
         21    1    1    2  504  501  0.31688199481E+02 -0.13393938165E+02  0.57125803686E+01  0.34873674031E+02  0.00000000000E+00 0. -1.
         21    1    1    2  505  503 -0.86447015758E+02 -0.26580901583E+03 -0.10611905870E+03  0.29897955456E+03  0.00000000000E+00 0. -1.
          2    1    1    2  501    0 -0.32207977168E+02  0.26165091492E+03  0.13420277449E+04  0.13676757741E+04  0.00000000000E+00 0.  1.
<scales pt_clust_3="97.92886" pt_clust_4="34.40261" pt_clust_5="263.10262" pt_clust_6="14000.00000"></scales>
<clustering>
<clus scale="   34.403">  2  4  1 -1</clus>
<clus scale="   97.929">  2  3  1 -1</clus>
<clus scale="  263.103">  2  5  1 -1</clus>
<clus scale="   34.403">  2  3  1 -1</clus>
</clustering>
</event>
<event>
 6    0  0.6851428E+002  0.6990045E+02  0.7546771E-02  0.1360432E+00
          2   -1    0    0  505    0 -0.00000000000E+00  0.00000000000E+00  0.23944741656E+04  0.23944741656E+04  0.00000000000E+00 0.  1.
         21   -1    0    0  503  502  0.00000000000E+00 -0.00000000000E+00 -0.51696244270E+02  0.51696244270E+02  0.00000000000E+00 0.  1.
         21    1    1    2  503  504 -0.17946047541E+01 -0.34594750231E+02 -0.10073882170E+02  0.36076314276E+02  0.00000000000E+00 0.  1.
         21    1    1    2  504  501 -0.92060203811E+02 -0.53138352705E+02  0.30859871777E+03  0.32639230117E+03  0.00000000000E+00 0.  1.
         21    1    1    2  505  502  0.28047728397E+02  0.71487383238E+02  0.57854601267E+02  0.96147157619E+02  0.00000000000E+00 0.  1.
          2    1    1    2  501    0  0.65807080168E+02  0.16245719697E+02  0.19863984845E+04  0.19875546368E+04  0.00000000000E+00 0.  1.
<scales pt_clust_3="34.64127" pt_clust_4="14000.00000" pt_clust_5="55.29932" pt_clust_6="69.90045"></scales>
<clustering>
<clus scale="   34.641">  2  3  1 -1</clus>
<clus scale="   55.299">  2  5  1 -1</clus>
<clus scale="   69.900">  1  6  2 -1</clus>
<clus scale="   34.641">  2  3  1 -1</clus>
</clustering>
</event>
<event>
 6    0  0.6851428E+002  0.8649218E+02  0.7546771E-02  0.1311576E+00
         21   -1    0    0  505  502  0.00000000000E+00  0.00000000000E+00  0.31002090084E+03  0.31002090084E+03  0.00000000000E+00 0.  1.
          1   -1    0    0  504    0 -0.00000000000E+00 -0.00000000000E+00 -0.19665908780E+03  0.19665908780E+03  0.00000000000E+00 0.  1.
         21    1    1    2  503  502  0.19255846976E+02 -0.53409078580E+02  0.20619304206E+03  0.21386651891E+03  0.00000000000E+00 0.  1.
         21    1    1    2  504  503 -0.19542976487E+00  0.11881189381E+03 -0.23687679062E+02  0.12115036295E+03  0.00000000000E+00 0.  1.
         21    1    1    2  505  501 -0.62259376699E+02 -0.44649273197E+02  0.11876547380E+02  0.77529607000E+02  0.00000000000E+00 0.  1.
          1    1    1    2  501    0  0.43198959488E+02 -0.20753542032E+02 -0.81020097342E+02  0.94133499781E+02  0.00000000000E+00 0.  1.
<scales pt_clust_3="57.98834" pt_clust_4="14000.00000" pt_clust_5="86.49218" pt_clust_6="47.92556"></scales>
<clustering>
<clus scale="   47.926">  2  6  1 -1</clus>
<clus scale="   57.988">  1  3  2 -1</clus>
<clus scale="   86.492">  1  5  2 -1</clus>
<clus scale="   57.988">  1  3  2 -1</clus>
</clustering>
</event>
<event>
 6    0  0.6851428E+002  0.1095907E+03  0.7546771E-02  0.1261330E+00
         21   -1    0    0  504  502  0.00000000000E+00  0.00000000000E+00  0.55191893021E+02  0.55191893021E+02  0.00000000000E+00 0. -1.
          2   -1    0    0  503    0 -0.00000000000E+00 -0.00000000000E+00 -0.13999141212E+04  0.13999141212E+04  0.00000000000E+00 0.  1.
         21    1    1    2  503  505 -0.11395267204E+02 -0.40651538714E+02 -0.28790605381E+03  0.29098504349E+03  0.00000000000E+00 0.  1.
         21    1    1    2  504  501 -0.97557715416E+01  0.51879026504E+02  0.32180876434E+02  0.61824083312E+02  0.00000000000E+00 0. -1.
         21    1    1    2  505  502 -0.71400737540E+02 -0.25790081214E+02 -0.55056896164E+03  0.55577817079E+03  0.00000000000E+00 0.  1.
          2    1    1    2  501    0  0.92551776286E+02  0.14562593424E+02 -0.53842808919E+03  0.54651871666E+03  0.00000000000E+00 0.  1.
<scales pt_clust_3="38.73470" pt_clust_4="52.78834" pt_clust_5="38.73470" pt_clust_6="96.49976"></scales>
<clustering>
<clus scale="   38.735">  3  5 -1 -1</clus>
<clus scale="   52.788">  1  4  2 -1</clus>
<clus scale="   96.500">  1  6  2 -1</clus>
<clus scale="   52.788">  1  3  2 -1</clus>
</clustering>
</event>
<event>
 6    0  0.6851428E+002  0.1061187E+03  0.7546771E-02  0.1267931E+00
          2   -1    0    0  504    0 -0.00000000000E+00  0.00000000000E+00  0.11997126566E+04  0.11997126566E+04  0.00000000000E+00 0. -1.
         21   -1    0    0  505  502  0.00000000000E+00 -0.00000000000E+00 -0.52133538307E+02  0.52133538307E+02  0.00000000000E+00 0.  1.
         21    1    1    2  503  502  0.79038665034E+02 -0.14182651089E+03  0.19221474457E+03  0.25161156132E+03  0.00000000000E+00 0.  1.
         21    1    1    2  504  503 -0.20252895566E+02 -0.25652025112E+02  0.91286230341E+02  0.96960724116E+02  0.00000000000E+00 0.  1.
         21    1    1    2  505  501 -0.40915440094E+02  0.58474062939E+02  0.64792388437E+02  0.96391612052E+02  0.00000000000E+00 0. -1.
          2    1    1    2  501    0 -0.17870329375E+02  0.10900447307E+03  0.79928575498E+03  0.80688229745E+03  0.00000000000E+00 0. -1.
<scales pt_clust_3="106.11867" pt_clust_4="32.68342" pt_clust_5="70.71841" pt_clust_6="14000.00000"></scales>
<clustering>
<clus scale="   32.683">  1  4  2 -1</clus>
<clus scale="   70.718">  2  5  1 -1</clus>
<clus scale="  106.119">  2  3  1 -1</clus>
<clus scale="   70.718">  2  3  1 -1</clus>
</clustering>
</event>
<event>
 6    0  0.6851428E+002  0.1031622E+03  0.7546771E-02  0.1273783E+00
          2   -1    0    0  505    0 -0.00000000000E+00  0.00000000000E+00  0.27718756282E+04  0.27718756282E+04  0.00000000000E+00 0.  1.
         21   -1    0    0  504  502  0.00000000000E+00 -0.00000000000E+00 -0.93071586026E+01  0.93071586026E+01  0.00000000000E+00 0.  1.
         21    1    1    2  503  501  0.15774757616E+02 -0.46541333755E+02  0.26985481691E+03  0.27429283792E+03  0.00000000000E+00 0.  1.
         21    1    1    2  504  503 -0.25307455827E+02 -0.45737938100E+02  0.27308174820E+03  0.27803968692E+03  0.00000000000E+00 0.  1.
         21    1    1    2  505  502 -0.80522251812E+02  0.11732946659E+02  0.83344946294E+03  0.83741238488E+03  0.00000000000E+00 0.  1.
          2    1    1    2  501    0  0.90054950023E+02  0.80546325197E+02  0.13861824416E+04  0.13914378771E+04  0.00000000000E+00 0.  1.
<scales pt_clust_3="39.79784" pt_clust_4="39.79784" pt_clust_5="81.37257" pt_clust_6="94.64502"></scales>
<clustering>
<clus scale="   39.798">  3  4 -1 -1</clus>
<clus scale="   81.373">  1  5  2 -1</clus>
<clus scale="   94.645">  1  6  2 -1</clus>
<clus scale="  103.162">  2  3  1 -1</clus>
</clustering>
</event>
<event>
 6    0  0.6851428E+002  0.8191221E+02  0.7546771E-02  0.1323711E+00
         21   -1    0    0  501  502  0.00000000000E+00  0.00000000000E+00  0.12999179938E+03  0.12999179938E+03  0.00000000000E+00 0. -1.
          4   -1    0    0  504    0 -0.00000000000E+00 -0.00000000000E+00 -0.88212468948E+03  0.88212468948E+03  0.00000000000E+00 0.  1.
         21    1    1    2  503  505  0.54455572097E+02  0.29231531953E+02 -0.12594051269E+03  0.14028864718E+03  0.00000000000E+00 0.  1.
         21    1    1    2  504  503  0.80779063217E+02 -0.37266525860E+02 -0.42776487671E+03  0.43691743012E+03  0.00000000000E+00 0.  1.
         21    1    1    2  505  502 -0.60840065830E+02 -0.68319855061E+01  0.10532566378E+03  0.12182645479E+03  0.00000000000E+00 0. -1.
          4    1    1    2  501    0 -0.74394569485E+02  0.14866979413E+02 -0.30375316449E+03  0.31308395676E+03  0.00000000000E+00 0.  1.
<scales pt_clust_3="38.28071" pt_clust_4="81.91221" pt_clust_5="61.22246" pt_clust_6="14000.00000"></scales>
<clustering>
<clus scale="   61.222">  1  5  2 -1</clus>
<clus scale="   38.281">  1  3  2 -1</clus>
<clus scale="   81.912">  2  4  1 -1</clus>
<clus scale="   61.222">  1  3  2 -1</clus>
</clustering>
</event>
<event>
 6    0  0.6851428E+002  0.1592568E+03  0.7546771E-02  0.1189538E+00
         21   -1    0    0  504  502  0.00000000000E+00  0.00000000000E+00  0.55186047401E+02  0.55186047401E+02  0.00000000000E+00 0.  1.
          3   -1    0    0  503    0 -0.00000000000E+00 -0.00000000000E+00 -0.11095478812E+04  0.11095478812E+04  0.00000000000E+00 0. -1.
         21    1    1    2  503  502  0.68926948735E+02 -0.12689303092E+03 -0.29264903323E+03  0.32633758933E+03  0.00000000000E+00 0.  1.
         21    1    1    2  504  505 -0.13703227744E+02  0.91076332682E+02 -0.11049150297E+03  0.14384383565E+03  0.00000000000E+00 0.  1.
         21    1    1    2  505  501 -0.16402752368E+02  0.69666897216E+02 -0.41648934830E+02  0.82807974408E+02  0.00000000000E+00 0.  1.
          3    1    1    2  501    0 -0.38820968623E+02 -0.33850198975E+02 -0.60957236273E+03  0.61174452918E+03  0.00000000000E+00 0. -1.
<scales pt_clust_3="154.54176" pt_clust_4="33.90831" pt_clust_5="33.90831" pt_clust_6="51.50635"></scales>
<clustering>
<clus scale="   33.908">  4  5 -1 -1</clus>
<clus scale="   51.506">  2  6  1 -1</clus>
<clus scale="  154.542">  2  3  1 -1</clus>
<clus scale="  159.257">  1  3  2 -1</clus>
</clustering>
</event>
<event>
 6    0  0.6851428E+002  0.1484491E+03  0.7546771E-02  0.1202392E+00
         21   -1    0    0  501  502  0.00000000000E+00  0.00000000000E+00  0.11558027645E+04  0.11558027645E+04  0.00000000000E+00 0. -1.
          1   -1    0    0  504    0 -0.00000000000E+00 -0.00000000000E+00 -0.60393343476E+03  0.60393343476E+03  0.00000000000E+00 0. -1.
         21    1    1    2  503  505 -0.16719761343E+02  0.64363999862E+02  0.76393553331E+02  0.10128301876E+03  0.00000000000E+00 0. -1.
         21    1    1    2  504  503 -0.53838404330E+02  0.57628374010E+02  0.79187098694E+02  0.11175956277E+03  0.00000000000E+00 0.  1.
         21    1    1    2  505  502  0.18753508224E+02 -0.14507360215E+03  0.96456513743E+03  0.97559415151E+03  0.00000000000E+00 0. -1.
          1    1    1    2  501    0  0.51804657449E+02  0.23081228274E+02 -0.56827645973E+03  0.57109946622E+03  0.00000000000E+00 0. -1.
<scales pt_clust_3="33.37770" pt_clust_4="33.37770" pt_clust_5="143.93030" pt_clust_6="56.71389"></scales>
<clustering>
<clus scale="   33.378">  3  4 -1 -1</clus>
<clus scale="   56.714">  2  6  1 -1</clus>
<clus scale="  143.930">  1  5  2 -1</clus>
<clus scale="  143.930">  1  3  2 -1</clus>
</clustering>
</event>
<event>
 6    0  0.6851428E+002  0.1172791E+03  0.7546771E-02  0.1247654E+00
          2   -1    0    0  505    0 -0.00000000000E+00  0.00000000000E+00  0.17259367448E+04  0.17259367448E+04  0.00000000000E+00 0.  1.
         21   -1    0    0  504  502  0.00000000000E+00 -0.00000000000E+00 -0.47238247383E+02  0.47238247383E+02  0.00000000000E+00 0. -1.
         21    1    1    2  503  502 -0.59543393701E+02  0.42151456936E+02  0.72159260252E+02  0.10261149982E+03  0.00000000000E+00 0.  1.
         21    1    1    2  504  501  0.33764295818E+02 -0.10413476578E+03  0.86942431033E+02  0.13979650722E+03  0.00000000000E+00 0. -1.
         21    1    1    2  505  503 -0.24651412585E+02  0.38503814080E+02  0.98623771320E+02  0.10870549255E+03  0.00000000000E+00 0.  1.
          2    1    1    2  501    0  0.50430510468E+02  0.23479494764E+02  0.14209730348E+04  0.14220614925E+04  0.00000000000E+00 0.  1.
<scales pt_clust_3="34.45209" pt_clust_4="108.90542" pt_clust_5="34.45209" pt_clust_6="55.62844"></scales>
<clustering>
<clus scale="   34.452">  3  5 -1 -1</clus>
<clus scale="   55.628">  1  6  2 -1</clus>
<clus scale="  108.905">  2  4  1 -1</clus>
<clus scale="  108.905">  2  3  1 -1</clus>
</clustering>
</event>
<event>
 6    0  0.6851428E+002  0.1123410E+03  0.7546771E-02  0.1256295E+00
         21   -1    0    0  503  502  0.00000000000E+00  0.00000000000E+00  0.53216446337E+03  0.53216446337E+03  0.00000000000E+00 0. -1.
          2   -1    0    0  505    0 -0.00000000000E+00 -0.00000000000E+00 -0.31766672848E+03  0.31766672848E+03  0.00000000000E+00 0.  1.
         21    1    1    2  503  504 -0.35484349973E+02  0.60333267457E+02  0.35200274524E+03  0.35889437849E+03  0.00000000000E+00 0. -1.
         21    1    1    2  504  501  0.97317615924E+02  0.37457928162E+02  0.12820668481E+03  0.16525970102E+03  0.00000000000E+00 0. -1.
         21    1    1    2  505  502  0.33673070127E+02 -0.91021503392E+01 -0.64145637167E+01  0.35466483055E+02  0.00000000000E+00 0. -1.
          2    1    1    2  501    0 -0.95506336078E+02 -0.88689045279E+02 -0.25929713144E+03  0.29021062929E+03  0.00000000000E+00 0.  1.
<scales pt_clust_3="69.70581" pt_clust_4="112.34097" pt_clust_5="34.88158" pt_clust_6="14000.00000"></scales>
<clustering>
<clus scale="   34.882">  2  5  1 -1</clus>
<clus scale="   69.706">  1  3  2 -1</clus>
<clus scale="  112.341">  1  4  2 -1</clus>
<clus scale="   69.706">  1  3  2 -1</clus>
</clustering>
</event>
<event>
 6    0  0.6851428E+002  0.1165192E+03  0.7546771E-02  0.1248952E+00
         -4   -1    0    0    0  501 -0.00000000000E+00  0.00000000000E+00  0.10739506042E+04  0.10739506042E+04  0.00000000000E+00 0. -1.
         21   -1    0    0  505  502  0.00000000000E+00 -0.00000000000E+00 -0.56745271326E+02  0.56745271326E+02  0.00000000000E+00 0. -1.
         21    1    1    2  503  504 -0.32059818287E+02  0.18170155759E+02  0.10403114502E+03  0.11036514687E+03  0.00000000000E+00 0. -1.
         21    1    1    2  504  501  0.58870993621E+02  0.11118532751E+03  0.55710062404E+03  0.57112964925E+03  0.00000000000E+00 0. -1.
         21    1    1    2  505  503 -0.29876145779E+02 -0.15331190286E+02 -0.30981090664E+02  0.45688701677E+02  0.00000000000E+00 0. -1.
         -4    1    1    2    0  502  0.30649704452E+01 -0.11402429298E+03  0.38705465452E+03  0.40351237778E+03  0.00000000000E+00 0. -1.
<scales pt_clust_3="40.31190" pt_clust_4="116.51922" pt_clust_5="33.58019" pt_clust_6="14000.00000"></scales>
<clustering>
<clus scale="   33.580">  2  5  1 -1</clus>
<clus scale="   40.312">  2  3  1 -1</clus>
<clus scale="  116.519">  1  4  2 -1</clus>
<clus scale="   33.580">  2  3  1 -1</clus>
</clustering>
</event>
<event>
 6    0  0.6851428E+002  0.1331427E+03  0.7546771E-02  0.1222866E+00
          2   -1    0    0  503    0 -0.00000000000E+00  0.00000000000E+00  0.84954786024E+02  0.84954786024E+02  0.00000000000E+00 0. -1.
         21   -1    0    0  504  502  0.00000000000E+00 -0.00000000000E+00 -0.62197920082E+03  0.62197920082E+03  0.00000000000E+00 0. -1.
         21    1    1    2  503  502  0.11020935668E+03  0.17335786667E+02 -0.19997163003E+03  0.22898752066E+03  0.00000000000E+00 0. -1.
         21    1    1    2  504  505  0.27922481138E+01  0.58105759369E+02 -0.33171474407E+03  0.33677699944E+03  0.00000000000E+00 0. -1.
         21    1    1    2  505  501 -0.70551924200E+02 -0.31317740931E+02 -0.16494623732E+02  0.78933183880E+02  0.00000000000E+00 0.  1.
          2    1    1    2  501    0 -0.42449680597E+02 -0.44123805105E+02  0.11156583035E+02  0.62236282864E+02  0.00000000000E+00 0. -1.
<scales pt_clust_3="127.62227" pt_clust_4="58.17281" pt_clust_5="33.79127" pt_clust_6="33.79127"></scales>
<clustering>
<clus scale="   33.791">  5  6 -1 -1</clus>
<clus scale="   58.173">  2  4  1 -1</clus>
<clus scale="  127.622">  2  3  1 -1</clus>
<clus scale="   58.173">  2  3  1 -1</clus>
</clustering>
</event>
<event>
 6    0  0.6851428E+002  0.1272243E+03  0.7546771E-02  0.1231633E+00
         21   -1    0    0  505  502  0.00000000000E+00  0.00000000000E+00  0.21483009322E+03  0.21483009322E+03  0.00000000000E+00 0.  1.
          2   -1    0    0  503    0 -0.00000000000E+00 -0.00000000000E+00 -0.22134699872E+04  0.22134699872E+04  0.00000000000E+00 0.  1.
         21    1    1    2  503  502  0.35964457053E+02 -0.60805199297E+02  0.95631038416E+02  0.11889495339E+03  0.00000000000E+00 0.  1.
         21    1    1    2  504  501 -0.34777721277E+02 -0.32278117173E+02  0.99356791440E+01  0.48477669761E+02  0.00000000000E+00 0. -1.
         21    1    1    2  505  504 -0.23706729503E+02 -0.33452717575E+02  0.70967160449E+02  0.81959936548E+02  0.00000000000E+00 0. -1.
          2    1    1    2  501    0  0.22519993726E+02  0.12653603405E+03 -0.21751737720E+04  0.21789675207E+04  0.00000000000E+00 0.  1.
<scales pt_clust_3="127.22430" pt_clust_4="55.94799" pt_clust_5="41.00114" pt_clust_6="14000.00000"></scales>
<clustering>
<clus scale="   41.001">  1  5  2 -1</clus>
<clus scale="   55.948">  1  4  2 -1</clus>
<clus scale="  127.224">  1  3  2 -1</clus>
<clus scale="   41.001">  1  3  2 -1</clus>
</clustering>
</event>
<event>
 6    0  0.6851428E+002  0.1422673E+03  0.7546771E-02  0.1210310E+00
         21   -1    0    0  504  502  0.00000000000E+00  0.00000000000E+00  0.30645984918E+03  0.30645984918E+03  0.00000000000E+00 0. -1.
         -4   -1    0    0    0  501 -0.00000000000E+00 -0.00000000000E+00 -0.11885212178E+04  0.11885212178E+04  0.00000000000E+00 0. -1.
         21    1    1    2  503  505  0.11768760815E+03  0.79628834183E+01 -0.21067639001E+02  0.11982331174E+03  0.00000000000E+00 0. -1.
         21    1    1    2  504  501 -0.15714935837E+03  0.36306166943E+00  0.20029527268E+03  0.25458642719E+03  0.00000000000E+00 0. -1.
         21    1    1    2  505  502  0.63575543578E+01 -0.46462003375E+02  0.10118652653E+02  0.47974195007E+02  0.00000000000E+00 0.  1.
         -4    1    1    2    0  503  0.33104195866E+02  0.38136058287E+02 -0.10714076550E+04  0.10725971331E+04  0.00000000000E+00 0. -1.
<scales pt_clust_3="14000.00000" pt_clust_4="142.26730" pt_clust_5="46.89495" pt_clust_6="50.43374"></scales>
<clustering>
<clus scale="   46.895">  1  5  2 -1</clus>
<clus scale="   50.434">  2  6  1 -1</clus>
<clus scale="  142.267">  1  4  2 -1</clus>
<clus scale="   46.895">  1  3  2 -1</clus>
</clustering>
</event>
<event>
 6    0  0.6851428E+002  0.8718302E+02  0.7546771E-02  0.1309820E+00
          1   -1    0    0  505    0 -0.00000000000E+00  0.00000000000E+00  0.99916368114E+03  0.99916368114E+03  0.00000000000E+00 0.  1.
         21   -1    0    0  503  502  0.00000000000E+00 -0.00000000000E+00 -0.35714189335E+03  0.35714189335E+03  0.00000000000E+00 0.  1.
         21    1    1    2  503  501  0.41098730788E+02 -0.69787192830E+01 -0.34524795215E+02  0.54127346876E+02  0.00000000000E+00 0.  1.
         21    1    1    2  504  502  0.47630611921E+02 -0.21645850558E+02 -0.20506758081E+03  0.21163631715E+03  0.00000000000E+00 0.  1.
         21    1    1    2  505  504 -0.90229411599E+02  0.79842701384E+02 -0.68802943559E+02  0.13874454484E+03  0.00000000000E+00 0.  1.
          1    1    1    2  501    0  0.15000688895E+01 -0.51218131543E+02  0.95041710738E+03  0.95179736562E+03  0.00000000000E+00 0.  1.
<scales pt_clust_3="41.68703" pt_clust_4="14000.00000" pt_clust_5="87.18302" pt_clust_6="51.25822"></scales>
<clustering>
<clus scale="   41.687">  2  3  1 -1</clus>
<clus scale="   51.258">  1  6  2 -1</clus>
<clus scale="   87.183">  1  5  2 -1</clus>
<clus scale="   41.687">  2  3  1 -1</clus>
</clustering>
</event>
<event>
 6    0  0.6851428E+002  0.1013264E+03  0.7546771E-02  0.1277531E+00
          1   -1    0    0  504    0 -0.00000000000E+00  0.00000000000E+00  0.67322564345E+03  0.67322564345E+03  0.00000000000E+00 0. -1.
         21   -1    0    0  503  502  0.00000000000E+00 -0.00000000000E+00 -0.78874247879E+02  0.78874247879E+02  0.00000000000E+00 0.  1.
         21    1    1    2  503  501  0.51236878039E+02  0.19884037746E+02 -0.14256826308E+02  0.56778954945E+02  0.00000000000E+00 0. -1.
         21    1    1    2  504  505 -0.99234717378E+01  0.74510732511E+02  0.77672529074E+02  0.10808952920E+03  0.00000000000E+00 0.  1.
         21    1    1    2  505  502 -0.29621128553E+02  0.16792413781E+02 -0.95019432586E+01  0.35350860570E+02  0.00000000000E+00 0.  1.
          1    1    1    2  501    0 -0.11692277749E+02 -0.11118718404E+03  0.54043763606E+03  0.55188054661E+03  0.00000000000E+00 0. -1.
<scales pt_clust_3="44.60817" pt_clust_4="14000.00000" pt_clust_5="34.04991" pt_clust_6="101.32642"></scales>
<clustering>
<clus scale="   34.050">  2  5  1 -1</clus>
<clus scale="   44.608">  2  3  1 -1</clus>
<clus scale="  101.326">  1  6  2 -1</clus>
<clus scale="   34.050">  2  3  1 -1</clus>
</clustering>
</event>
<event>
 6    0  0.6851428E+002  0.1034814E+03  0.7546771E-02  0.1273141E+00
          2   -1    0    0  503    0 -0.00000000000E+00  0.00000000000E+00  0.18298969909E+04  0.18298969909E+04  0.00000000000E+00 0. -1.
         21   -1    0    0  501  502  0.00000000000E+00 -0.00000000000E+00 -0.17222834768E+02  0.17222834768E+02  0.00000000000E+00 0. -1.
         21    1    1    2  503  504 -0.88783269743E+02 -0.11745874122E+02  0.35175395216E+03  0.36297558790E+03  0.00000000000E+00 0. -1.
         21    1    1    2  504  505  0.22196642809E+02 -0.30105431670E+02  0.18442053495E+03  0.18817534823E+03  0.00000000000E+00 0. -1.
         21    1    1    2  505  502 -0.27472692706E+02 -0.20618029742E+02  0.33936794804E+02  0.48286209589E+02  0.00000000000E+00 0. -1.
          2    1    1    2  501    0  0.94059319640E+02  0.62469335535E+02  0.12425628742E+04  0.12476826799E+04  0.00000000000E+00 0. -1.
<scales pt_clust_3="14000.00000" pt_clust_4="38.00387" pt_clust_5="34.34897" pt_clust_6="103.48139"></scales>
<clustering>
<clus scale="   34.349">  2  5  1 -1</clus>
<clus scale="   38.004">  2  4  1 -1</clus>
<clus scale="  103.481">  1  6  2 -1</clus>
<clus scale="   34.349">  2  3  1 -1</clus>
</clustering>
</event>
<event>
 6    0  0.6851428E+002  0.1507111E+03  0.7546771E-02  0.1199602E+00
         21   -1    0    0  501  502  0.00000000000E+00  0.00000000000E+00  0.19098627976E+02  0.19098627976E+02  0.00000000000E+00 0. -1.
          2   -1    0    0  504    0 -0.00000000000E+00 -0.00000000000E+00 -0.43376224550E+04  0.43376224550E+04  0.00000000000E+00 0.  1.
         21    1    1    2  503  502  0.33455322783E+02 -0.51210141925E+01 -0.10162327907E+02  0.35337746354E+02  0.00000000000E+00 0. -1.
         21    1    1    2  504  505 -0.35079802141E+02 -0.87635010249E+02 -0.15433971263E+04  0.15462810796E+04  0.00000000000E+00 0.  1.
         21    1    1    2  505  503 -0.24620105352E+02 -0.38734827712E+02 -0.18296685655E+04  0.18302441357E+04  0.00000000000E+00 0.  1.
          2    1    1    2  501    0  0.26244584709E+02  0.13149085215E+03 -0.93529580726E+03  0.94485812136E+03  0.00000000000E+00 0.  1.
<scales pt_clust_3="33.84499" pt_clust_4="43.13034" pt_clust_5="43.13034" pt_clust_6="137.46592"></scales>
<clustering>
<clus scale="   33.845">  1  3  2 -1</clus>
<clus scale="   43.130">  4  5 -1 -1</clus>
<clus scale="  137.466">  1  6  2 -1</clus>
<clus scale="   33.845">  1  3  2 -1</clus>
</clustering>
</event>
<event>
 6    0  0.6851428E+002  0.1038003E+03  0.7546771E-02  0.1272502E+00
         21   -1    0    0  504  502  0.00000000000E+00  0.00000000000E+00  0.16596595153E+04  0.16596595153E+04  0.00000000000E+00 0.  1.
          1   -1    0    0  503    0 -0.00000000000E+00 -0.00000000000E+00 -0.20122137133E+04  0.20122137133E+04  0.00000000000E+00 0. -1.
         21    1    1    2  503  505  0.38081952414E+02  0.15818460058E+02 -0.10690446389E+02  0.42599817162E+02  0.00000000000E+00 0. -1.
         21    1    1    2  504  501 -0.10421211438E+03 -0.35597331958E+02  0.14025404878E+04  0.14068571906E+04  0.00000000000E+00 0.  1.
         21    1    1    2  505  502  0.54035589345E+02  0.74410202716E+02  0.22974917040E+03  0.24747000724E+03  0.00000000000E+00 0.  1.
          1    1    1    2  501    0  0.12094572622E+02 -0.54631330816E+02 -0.19741534098E+04  0.19749462136E+04  0.00000000000E+00 0. -1.
<scales pt_clust_3="41.23662" pt_clust_4="103.80026" pt_clust_5="14000.00000" pt_clust_6="63.32283"></scales>
<clustering>
<clus scale="   41.237">  2  3  1 -1</clus>
<clus scale="   63.323">  2  6  1 -1</clus>
<clus scale="  103.800">  1  4  2 -1</clus>
<clus scale="  103.800">  1  3  2 -1</clus>
</clustering>
</event>
<event>
 6    0  0.6851428E+002  0.2318970E+03  0.7546771E-02  0.1125312E+00
          2   -1    0    0  504    0 -0.00000000000E+00  0.00000000000E+00  0.87008891269E+03  0.87008891269E+03  0.00000000000E+00 0.  1.
         21   -1    0    0  503  502  0.00000000000E+00 -0.00000000000E+00 -0.43441757649E+03  0.43441757649E+03  0.00000000000E+00 0. -1.
         21    1    1    2  503  505  0.46910534905E+02 -0.79824262331E+01 -0.24109277086E+02  0.53343928007E+02  0.00000000000E+00 0. -1.
         21    1    1    2  504  502 -0.12856260818E+02  0.50993594263E+02 -0.32136647645E+02  0.61631114057E+02  0.00000000000E+00 0.  1.
         21    1    1    2  505  501  0.13811330888E+03  0.11622245006E+03 -0.30742315285E+03  0.35649956367E+03  0.00000000000E+00 0. -1.
          2    1    1    2  501    0 -0.17216758296E+03 -0.15923361809E+03  0.79934041377E+03  0.83303188345E+03  0.00000000000E+00 0.  1.
<scales pt_clust_3="47.58484" pt_clust_4="50.57709" pt_clust_5="14000.00000" pt_clust_6="231.89695"></scales>
<clustering>
<clus scale="   47.585">  2  3  1 -1</clus>
<clus scale="   50.577">  2  4  1 -1</clus>
<clus scale="  231.897">  1  6  2 -1</clus>
<clus scale="   47.585">  2  3  1 -1</clus>
</clustering>
</event>
<event>
 6    0  0.6851428E+002  0.1792696E+03  0.7546771E-02  0.1168512E+00
         -1   -1    0    0    0  501 -0.00000000000E+00  0.00000000000E+00  0.17847045058E+03  0.17847045058E+03  0.00000000000E+00 0. -1.
         21   -1    0    0  501  502  0.00000000000E+00 -0.00000000000E+00 -0.32354661122E+03  0.32354661122E+03  0.00000000000E+00 0. -1.
         21    1    1    2  503  505 -0.11789086111E+03  0.65363713086E+02 -0.15512891686E+03  0.20551314062E+03  0.00000000000E+00 0. -1.
         21    1    1    2  504  503  0.66900711650E+02 -0.22948073473E+02  0.18518178746E+02  0.73111163577E+02  0.00000000000E+00 0. -1.
         21    1    1    2  505  502 -0.17605049529E+02  0.36532942460E+02 -0.84742613090E+02  0.93946283200E+02  0.00000000000E+00 0. -1.
         -1    1    1    2    0  504  0.68595198991E+02 -0.78948582073E+02  0.76277190560E+02  0.12944647440E+03  0.00000000000E+00 0. -1.
<scales pt_clust_3="31.96137" pt_clust_4="47.25016" pt_clust_5="31.96137" pt_clust_6="179.00680"></scales>
<clustering>
<clus scale="   31.961">  3  5 -1 -1</clus>
<clus scale="   47.250">  4  6 -1 -1</clus>
<clus scale="  179.007">  1  4  2 -1</clus>
<clus scale="  179.270">  2  3  1 -1</clus>
</clustering>
</event>
<event>
 6    0  0.6851428E+002  0.9327903E+02  0.7546771E-02  0.1295100E+00
         21   -1    0    0  504  502  0.00000000000E+00  0.00000000000E+00  0.16505774963E+04  0.16505774963E+04  0.00000000000E+00 0. -1.
          2   -1    0    0  505    0 -0.00000000000E+00 -0.00000000000E+00 -0.19687896859E+03  0.19687896859E+03  0.00000000000E+00 0.  1.
         21    1    1    2  503  501  0.52714701296E+02 -0.43317933835E+02 -0.52977738047E+02  0.86382427919E+02  0.00000000000E+00 0. -1.
         21    1    1    2  504  503 -0.93180817382E+02  0.78329536278E+02  0.14074834127E+04  0.14127376749E+04  0.00000000000E+00 0. -1.
         21    1    1    2  505  502  0.72535777720E+01 -0.39340588376E+02  0.21967377743E+03  0.22328650827E+03  0.00000000000E+00 0. -1.
          2    1    1    2  501    0  0.33212538314E+02  0.43289859330E+01 -0.12048092435E+03  0.12504985386E+03  0.00000000000E+00 0.  1.
<scales pt_clust_3="93.27903" pt_clust_4="14000.00000" pt_clust_5="40.05502" pt_clust_6="33.49347"></scales>
<clustering>
<clus scale="   33.493">  2  6  1 -1</clus>
<clus scale="   40.055">  1  5  2 -1</clus>
<clus scale="   93.279">  2  3  1 -1</clus>
<clus scale="   40.055">  1  3  2 -1</clus>
</clustering>
</event>
<event>
 6    0  0.6851428E+002  0.1143862E+03  0.7546771E-02  0.1252656E+00
         -2   -1    0    0    0  501 -0.00000000000E+00  0.00000000000E+00  0.17976587676E+03  0.17976587676E+03  0.00000000000E+00 0. -1.
         21   -1    0    0  504  502  0.00000000000E+00 -0.00000000000E+00 -0.26044176855E+03  0.26044176855E+03  0.00000000000E+00 0. -1.
         21    1    1    2  503  502  0.98511739738E+02 -0.85078907295E+01 -0.17443203153E+03  0.20050805643E+03  0.00000000000E+00 0. -1.
         21    1    1    2  504  505 -0.48671284161E+02 -0.27341595244E+02  0.32105986388E+01  0.55917480952E+02  0.00000000000E+00 0. -1.
         21    1    1    2  505  501 -0.88602409764E+02  0.14987704341E+02  0.79794522876E+01  0.90214688140E+02  0.00000000000E+00 0. -1.
         -2    1    1    2    0  503  0.38761954187E+02  0.20861781632E+02  0.82566088811E+02  0.93567419794E+02  0.00000000000E+00 0. -1.
<scales pt_clust_3="104.17052" pt_clust_4="37.24306" pt_clust_5="37.24306" pt_clust_6="44.01935"></scales>
<clustering>
<clus scale="   37.243">  4  5 -1 -1</clus>
<clus scale="   44.019">  1  6  2 -1</clus>
<clus scale="  104.171">  2  3  1 -1</clus>
<clus scale="  104.171">  2  3  1 -1</clus>
</clustering>
</event>
<event>
 6    0  0.6851428E+002  0.1248883E+03  0.7546771E-02  0.1235244E+00
          2   -1    0    0  505    0 -0.00000000000E+00  0.00000000000E+00  0.41240373289E+03  0.41240373289E+03  0.00000000000E+00 0.  1.
         21   -1    0    0  501  502  0.00000000000E+00 -0.00000000000E+00 -0.20002779351E+03  0.20002779351E+03  0.00000000000E+00 0.  1.
         21    1    1    2  503  504  0.97567619673E+01 -0.12256973956E+03 -0.48017499717E+02  0.13200081719E+03  0.00000000000E+00 0.  1.
         21    1    1    2  504  502  0.51813874460E+02 -0.44247712211E+01 -0.30637204012E+02  0.60356395325E+02  0.00000000000E+00 0.  1.
         21    1    1    2  505  503 -0.28767676317E+02  0.12126580957E+03 -0.25043994165E+01  0.12465651923E+03  0.00000000000E+00 0.  1.
          2    1    1    2  501    0 -0.32802960111E+02  0.57287012132E+01  0.29353504253E+03  0.29541779466E+03  0.00000000000E+00 0.  1.
<scales pt_clust_3="124.88831" pt_clust_4="47.82406" pt_clust_5="14000.00000" pt_clust_6="33.29943"></scales>
<clustering>
<clus scale="   33.299">  1  6  2 -1</clus>
<clus scale="   47.824">  2  4  1 -1</clus>
<clus scale="  124.888">  2  3  1 -1</clus>
<clus scale="   47.824">  2  3  1 -1</clus>
</clustering>
</event>
<event>
 6    0  0.6851428E+002  0.1385947E+03  0.7546771E-02  0.1215233E+00
         21   -1    0    0  503  502  0.00000000000E+00  0.00000000000E+00  0.12047485377E+04  0.12047485377E+04  0.00000000000E+00 0. -1.
          2   -1    0    0  504    0 -0.00000000000E+00 -0.00000000000E+00 -0.29440307401E+02  0.29440307401E+02  0.00000000000E+00 0.  1.
         21    1    1    2  503  501  0.12556207507E+03  0.61435031338E+02  0.36489881287E+03  0.39075726660E+03  0.00000000000E+00 0.  1.
         21    1    1    2  504  505 -0.62888829072E+02 -0.27152957690E+02  0.43914328353E+03  0.44445372245E+03  0.00000000000E+00 0. -1.
         21    1    1    2  505  502 -0.64743248919E+02  0.17283428583E+02  0.31733496118E+03  0.32433298132E+03  0.00000000000E+00 0. -1.
          2    1    1    2  501    0  0.20700029260E+01 -0.51565502232E+02  0.53931172740E+02  0.74644874744E+02  0.00000000000E+00 0.  1.
<scales pt_clust_3="129.70035" pt_clust_4="48.31570" pt_clust_5="48.31570" pt_clust_6="51.60703"></scales>
<clustering>
<clus scale="   48.316">  4  5 -1 -1</clus>
<clus scale="   51.607">  2  6  1 -1</clus>
<clus scale="  129.700">  2  3  1 -1</clus>
<clus scale="  138.595">  1  3  2 -1</clus>
</clustering>
</event>
<event>
 6    0  0.6851428E+002  0.9621755E+02  0.7546771E-02  0.1288457E+00
          2   -1    0    0  504    0 -0.00000000000E+00  0.00000000000E+00  0.12511471338E+04  0.12511471338E+04  0.00000000000E+00 0. -1.
         21   -1    0    0  505  502  0.00000000000E+00 -0.00000000000E+00 -0.39368156481E+02  0.39368156481E+02  0.00000000000E+00 0. -1.
         21    1    1    2  503  502 -0.38750293905E+02 -0.28271702111E+02  0.82461851931E+02  0.95398277982E+02  0.00000000000E+00 0. -1.
         21    1    1    2  504  503 -0.57055448469E+02 -0.24226444491E+02  0.49328230509E+02  0.79218174290E+02  0.00000000000E+00 0. -1.
         21    1    1    2  505  501  0.25917930466E+02  0.83605458304E+02  0.99870268920E+02  0.13279940659E+03  0.00000000000E+00 0.  1.
          2    1    1    2  501    0  0.69887811908E+02 -0.31107311701E+02  0.98011862595E+03  0.98309943140E+03  0.00000000000E+00 0. -1.
<scales pt_clust_3="30.31383" pt_clust_4="30.31383" pt_clust_5="89.83503" pt_clust_6="76.49818"></scales>
<clustering>
<clus scale="   30.314">  3  4 -1 -1</clus>
<clus scale="   76.498">  1  6  2 -1</clus>
<clus scale="   89.835">  2  5  1 -1</clus>
<clus scale="   89.835">  2  3  1 -1</clus>
</clustering>
</event>
<event>
 6    0  0.6851428E+002  0.1519645E+03  0.7546771E-02  0.1198080E+00
         21   -1    0    0  501  502  0.00000000000E+00  0.00000000000E+00  0.23186544415E+03  0.23186544415E+03  0.00000000000E+00 0.  1.
          2   -1    0    0  505    0 -0.00000000000E+00 -0.00000000000E+00 -0.83384650851E+03  0.83384650851E+03  0.00000000000E+00 0.  1.
         21    1    1    2  503  504 -0.48533196615E+02  0.12802740774E+03  0.12666927401E+03  0.18652504733E+03  0.00000000000E+00 0.  1.
         21    1    1    2  504  502  0.10313390063E+02  0.33559828327E+02  0.76310688099E+01  0.35928558322E+02  0.00000000000E+00 0.  1.
         21    1    1    2  505  503  0.30626951555E+02 -0.10102013448E+03 -0.11195748928E+01  0.10556671436E+03  0.00000000000E+00 0.  1.
          2    1    1    2  501    0  0.75928549972E+01 -0.60567101580E+02 -0.73516183228E+03  0.73769163265E+03  0.00000000000E+00 0.  1.
<scales pt_clust_3="31.53354" pt_clust_4="31.53354" pt_clust_5="138.61952" pt_clust_6="61.04118"></scales>
<clustering>
<clus scale="   31.534">  3  4 -1 -1</clus>
<clus scale="   61.041">  2  6  1 -1</clus>
<clus scale="  138.620">  2  5  1 -1</clus>
<clus scale="  151.964">  1  3  2 -1</clus>
</clustering>
</event>
<event>
 6    0  0.6851428E+002  0.7131195E+02  0.7546771E-02  0.1355688E+00
          2   -1    0    0  505    0 -0.00000000000E+00  0.00000000000E+00  0.27108135115E+04  0.27108135115E+04  0.00000000000E+00 0. -1.
         21   -1    0    0  504  502  0.00000000000E+00 -0.00000000000E+00 -0.30655720137E+02  0.30655720137E+02  0.00000000000E+00 0. -1.
         21    1    1    2  503  502  0.31253923317E+02 -0.12548732382E+02  0.12633095854E+02  0.35970453402E+02  0.00000000000E+00 0. -1.
         21    1    1    2  504  501 -0.10613872366E+03  0.70110547159E+01  0.23696307718E+03  0.25974234059E+03  0.00000000000E+00 0. -1.
         21    1    1    2  505  503  0.22798577835E+02 -0.42926856586E+02  0.76598210953E+02  0.90718113345E+02  0.00000000000E+00 0. -1.
          2    1    1    2  501    0  0.52086222508E+02  0.48464534252E+02  0.23539634074E+04  0.23550383243E+04  0.00000000000E+00 0. -1.
<scales pt_clust_3="33.67905" pt_clust_4="14000.00000" pt_clust_5="58.73497" pt_clust_6="71.31195"></scales>
<clustering>
<clus scale="   33.679">  2  3  1 -1</clus>
<clus scale="   58.735">  2  5  1 -1</clus>
<clus scale="   71.312">  1  6  2 -1</clus>
<clus scale="   33.679">  2  3  1 -1</clus>
</clustering>
</event>
<event>
 6    0  0.6851428E+002  0.7330983E+02  0.7546771E-02  0.1349186E+00
          1   -1    0    0  503    0 -0.00000000000E+00  0.00000000000E+00  0.18480945704E+03  0.18480945704E+03  0.00000000000E+00 0.  1.
         21   -1    0    0  505  502  0.00000000000E+00 -0.00000000000E+00 -0.11502850906E+03  0.11502850906E+03  0.00000000000E+00 0.  1.
         21    1    1    2  503  504  0.28223842481E+02 -0.50835848117E+02  0.16173111810E+02  0.60352616213E+02  0.00000000000E+00 0.  1.
         21    1    1    2  504  502  0.46747978266E+02 -0.74663602589E+01 -0.17568028812E+02  0.50495105147E+02  0.00000000000E+00 0.  1.
         21    1    1    2  505  501 -0.64809254861E+02 -0.39887932413E+02  0.25893053746E+02  0.80384929558E+02  0.00000000000E+00 0.  1.
          1    1    1    2  501    0 -0.10162565886E+02  0.98190140789E+02  0.45282811239E+02  0.10860531519E+03  0.00000000000E+00 0.  1.
<scales pt_clust_3="73.30983" pt_clust_4="47.34047" pt_clust_5="64.86109" pt_clust_6="14000.00000"></scales>
<clustering>
<clus scale="   47.340">  2  4  1 -1</clus>
<clus scale="   64.861">  2  5  1 -1</clus>
<clus scale="   73.310">  1  3  2 -1</clus>
<clus scale="   47.340">  2  3  1 -1</clus>
</clustering>
</event>
<event>
 6    0  0.6851428E+002  0.8519978E+02  0.7546771E-02  0.1314911E+00
         21   -1    0    0  501  502  0.00000000000E+00  0.00000000000E+00  0.28071715242E+03  0.28071715242E+03  0.00000000000E+00 0.  1.
          3   -1    0    0  505    0 -0.00000000000E+00 -0.00000000000E+00 -0.38631415587E+03  0.38631415587E+03  0.00000000000E+00 0. -1.
         21    1    1    2  503  504 -0.11750271739E+03  0.24083235970E+02 -0.42910223540E+02  0.12738986668E+03  0.00000000000E+00 0. -1.
         21    1    1    2  504  502  0.63208573459E+02  0.98924595632E+01  0.20878460423E+03  0.21836711171E+03  0.00000000000E+00 0.  1.
         21    1    1    2  505  503 -0.10837362340E+02  0.37480579052E+02 -0.69411742342E+01  0.39628551933E+02  0.00000000000E+00 0. -1.
          3    1    1    2  501    0  0.65131506274E+02 -0.71456274585E+02 -0.26453020991E+03  0.28164577796E+03  0.00000000000E+00 0. -1.
<scales pt_clust_3="85.19978" pt_clust_4="63.91522" pt_clust_5="39.01592" pt_clust_6="14000.00000"></scales>
<clustering>
<clus scale="   39.016">  2  5  1 -1</clus>
<clus scale="   63.915">  1  4  2 -1</clus>
<clus scale="   85.200">  1  3  2 -1</clus>
<clus scale="   63.915">  1  3  2 -1</clus>
</clustering>
</event>
<event>
 6    0  0.6851428E+002  0.9766896E+02  0.7546771E-02  0.1285276E+00
         21   -1    0    0  504  502  0.00000000000E+00  0.00000000000E+00  0.66557629140E+03  0.66557629140E+03  0.00000000000E+00 0.  1.
         -1   -1    0    0    0  501 -0.00000000000E+00 -0.00000000000E+00 -0.19728096106E+04  0.19728096106E+04  0.00000000000E+00 0.  1.
         21    1    1    2  503  505 -0.13401825666E+03 -0.67838730964E+02  0.31683095448E+03  0.35063491020E+03  0.00000000000E+00 0.  1.
         21    1    1    2  504  503  0.64452293588E+02  0.48988342048E+02  0.29032440065E+03  0.30140042040E+03  0.00000000000E+00 0.  1.
         21    1    1    2  505  501  0.67132476016E+02  0.50275497460E+02 -0.13203598876E+02  0.84904240201E+02  0.00000000000E+00 0.  1.
         -1    1    1    2    0  502  0.24334870565E+01 -0.31425108544E+02 -0.19011850755E+04  0.19014463312E+04  0.00000000000E+00 0.  1.
<scales pt_clust_3="14000.00000" pt_clust_4="97.66896" pt_clust_5="74.55349" pt_clust_6="31.51919"></scales>
<clustering>
<clus scale="   31.519">  2  6  1 -1</clus>
<clus scale="   74.553">  2  5  1 -1</clus>
<clus scale="   97.669">  1  4  2 -1</clus>
<clus scale="   97.669">  1  3  2 -1</clus>
</clustering>
</event>
<event>
 6    0  0.6851428E+002  0.1415983E+03  0.7546771E-02  0.1211194E+00
         21   -1    0    0  505  502  0.00000000000E+00  0.00000000000E+00  0.10895638008E+03  0.10895638008E+03  0.00000000000E+00 0. -1.
         -2   -1    0    0    0  501 -0.00000000000E+00 -0.00000000000E+00 -0.89098311021E+03  0.89098311021E+03  0.00000000000E+00 0. -1.
         21    1    1    2  503  502  0.71356780875E+02 -0.47444616307E+01 -0.82069071568E+02  0.10885601775E+03  0.00000000000E+00 0. -1.
         21    1    1    2  504  503  0.25607262779E+02 -0.48556705726E+02 -0.42748894846E+02  0.69576961622E+02  0.00000000000E+00 0. -1.
         21    1    1    2  505  501 -0.13209043436E+03  0.23227315854E+02  0.26101496909E+02  0.13663337510E+03  0.00000000000E+00 0. -1.
         -2    1    1    2    0  504  0.35126390708E+02  0.30073851502E+02 -0.68331026063E+03  0.68487313581E+03  0.00000000000E+00 0. -1.
<scales pt_clust_3="49.41818" pt_clust_4="49.41818" pt_clust_5="126.62668" pt_clust_6="46.24175"></scales>
<clustering>
<clus scale="   46.242">  2  6  1 -1</clus>
<clus scale="   49.418">  3  4 -1 -1</clus>
<clus scale="  126.627">  1  5  2 -1</clus>
<clus scale="  126.627">  1  3  2 -1</clus>
</clustering>
</event>
<event>
 6    0  0.6851428E+002  0.7496429E+02  0.7546771E-02  0.1343982E+00
          1   -1    0    0  505    0 -0.00000000000E+00  0.00000000000E+00  0.69123247305E+03  0.69123247305E+03  0.00000000000E+00 0. -1.
         21   -1    0    0  504  502  0.00000000000E+00 -0.00000000000E+00 -0.62613359281E+03  0.62613359281E+03  0.00000000000E+00 0.  1.
         21    1    1    2  503  501 -0.14355215706E+02  0.11921844605E+03 -0.49048350995E+02  0.12971064270E+03  0.00000000000E+00 0. -1.
         21    1    1    2  504  503  0.56267242882E+01 -0.82115552290E+02 -0.45991478948E+03  0.46722182904E+03  0.00000000000E+00 0.  1.
         21    1    1    2  505  502  0.26879910938E+02  0.34706980778E+02 -0.64262983005E+02  0.77825671289E+02  0.00000000000E+00 0. -1.
          1    1    1    2  501    0 -0.18151419521E+02 -0.71809874533E+02  0.63832500371E+03  0.64260792282E+03  0.00000000000E+00 0. -1.
<scales pt_clust_3="14000.00000" pt_clust_4="60.09233" pt_clust_5="43.89879" pt_clust_6="74.96429"></scales>
<clustering>
<clus scale="   43.899">  2  5  1 -1</clus>
<clus scale="   60.092">  2  4  1 -1</clus>
<clus scale="   74.964">  1  6  2 -1</clus>
<clus scale="   43.899">  2  3  1 -1</clus>
</clustering>
</event>
<event>
 6    0  0.6851428E+002  0.1173318E+03  0.7546771E-02  0.1247565E+00
         21   -1    0    0  504  502  0.00000000000E+00  0.00000000000E+00  0.89387630074E+02  0.89387630074E+02  0.00000000000E+00 0. -1.
          2   -1    0    0  503    0 -0.00000000000E+00 -0.00000000000E+00 -0.81080273639E+03  0.81080273639E+03  0.00000000000E+00 0.  1.
         21    1    1    2  503  505  0.43154588630E+02  0.43243684936E+02 -0.16704877412E+03  0.17786969315E+03  0.00000000000E+00 0. -1.
         21    1    1    2  504  501  0.10074228251E+03 -0.48206988862E+02 -0.18929688739E+03  0.21978678949E+03  0.00000000000E+00 0. -1.
         21    1    1    2  505  502 -0.32962677156E+02 -0.57581976085E+02  0.40300950648E+02  0.77629818229E+02  0.00000000000E+00 0. -1.
          2    1    1    2  501    0 -0.11093419398E+03  0.62545280011E+02 -0.40537039545E+03  0.42490406559E+03  0.00000000000E+00 0.  1.
<scales pt_clust_3="61.09284" pt_clust_4="14000.00000" pt_clust_5="64.62674" pt_clust_6="117.33181"></scales>
<clustering>
<clus scale="   61.093">  2  3  1 -1</clus>
<clus scale="   64.627">  1  5  2 -1</clus>
<clus scale="  117.332">  2  6  1 -1</clus>
<clus scale="   64.627">  1  3  2 -1</clus>
</clustering>
</event>
<event>
 6    0  0.6851428E+002  0.1100229E+03  0.7546771E-02  0.1260527E+00
          1   -1    0    0  504    0 -0.00000000000E+00  0.00000000000E+00  0.19453188915E+04  0.19453188915E+04  0.00000000000E+00 0. -1.
         21   -1    0    0  503  502  0.00000000000E+00 -0.00000000000E+00 -0.68781553291E+02  0.68781553291E+02  0.00000000000E+00 0. -1.
         21    1    1    2  503  501  0.83685723501E+02 -0.30646026845E+02  0.14355943490E+03  0.16897275114E+03  0.00000000000E+00 0.  1.
         21    1    1    2  504  505 -0.43625267258E+02  0.22154154111E+02  0.31389966152E+03  0.31769005019E+03  0.00000000000E+00 0. -1.
         21    1    1    2  505  502  0.23150177943E+02 -0.33811128702E+02 -0.45301028695E+02  0.61084419975E+02  0.00000000000E+00 0. -1.
          1    1    1    2  501    0 -0.63210634187E+02  0.42303001435E+02  0.14643792705E+04  0.14663532235E+04  0.00000000000E+00 0. -1.
<scales pt_clust_3="110.02291" pt_clust_4="44.62168" pt_clust_5="40.97711" pt_clust_6="14000.00000"></scales>
<clustering>
<clus scale="   40.977">  2  5  1 -1</clus>
<clus scale="   44.622">  1  4  2 -1</clus>
<clus scale="  110.023">  2  3  1 -1</clus>
<clus scale="   40.977">  2  3  1 -1</clus>
</clustering>
</event>
<event>
 6    0  0.6851428E+002  0.2169648E+03  0.7546771E-02  0.1136166E+00
          2   -1    0    0  502    0 -0.00000000000E+00  0.00000000000E+00  0.19837631763E+04  0.19837631763E+04  0.00000000000E+00 0.  1.
         21   -1    0    0  505  502  0.00000000000E+00 -0.00000000000E+00 -0.55053212964E+03  0.55053212964E+03  0.00000000000E+00 0.  1.
         21    1    1    2  503  504 -0.10686181934E+03 -0.15790344786E+03 -0.27644371921E+03  0.33581851821E+03  0.00000000000E+00 0.  1.
         21    1    1    2  504  501  0.98717935152E+02  0.21162839483E+03 -0.67736233129E+02  0.24314605795E+03  0.00000000000E+00 0. -1.
         21    1    1    2  505  503  0.48509184715E+02 -0.67359768002E+02 -0.69296510913E+02  0.10813179815E+03  0.00000000000E+00 0.  1.
          2    1    1    2  501    0 -0.40365300527E+02  0.13634821036E+02  0.18467075099E+04  0.18471989316E+04  0.00000000000E+00 0.  1.
<scales pt_clust_3="216.96475" pt_clust_4="14000.00000" pt_clust_5="78.16974" pt_clust_6="42.60594"></scales>
<clustering>
<clus scale="   42.606">  1  6  2 -1</clus>
<clus scale="   78.170">  2  5  1 -1</clus>
<clus scale="  216.965">  2  3  1 -1</clus>
<clus scale="   78.170">  2  3  1 -1</clus>
</clustering>
</event>
<event>
 6    0  0.6851428E+002  0.2157706E+03  0.7546771E-02  0.1137076E+00
         21   -1    0    0  504  502  0.00000000000E+00  0.00000000000E+00  0.13745084068E+04  0.13745084068E+04  0.00000000000E+00 0. -1.
          2   -1    0    0  503    0 -0.00000000000E+00 -0.00000000000E+00 -0.10247285888E+04  0.10247285888E+04  0.00000000000E+00 0.  1.
         21    1    1    2  503  505 -0.10112335111E+03 -0.23653147157E+03  0.44672386040E+02  0.26109134657E+03  0.00000000000E+00 0.  1.
         21    1    1    2  504  501  0.52611128203E+02  0.17489072085E+03  0.11074522481E+04  0.11224104316E+04  0.00000000000E+00 0. -1.
         21    1    1    2  505  502  0.38482145706E+02  0.19637596047E+02  0.10178515005E+03  0.11057453363E+03  0.00000000000E+00 0.  1.
          2    1    1    2  501    0  0.10030077199E+02  0.42003154667E+02 -0.90412996628E+03  0.90516068373E+03  0.00000000000E+00 0.  1.
<scales pt_clust_3="215.77058" pt_clust_4="14000.00000" pt_clust_5="44.24515" pt_clust_6="43.18411"></scales>
<clustering>
<clus scale="   43.184">  2  6  1 -1</clus>
<clus scale="   44.245">  1  5  2 -1</clus>
<clus scale="  215.771">  2  3  1 -1</clus>
<clus scale="   44.245">  1  3  2 -1</clus>
</clustering>
</event>
<event>
 6    0  0.6851428E+002  0.2042362E+03  0.7546771E-02  0.1146213E+00
         21   -1    0    0  505  502  0.00000000000E+00  0.00000000000E+00  0.60084996879E+02  0.60084996879E+02  0.00000000000E+00 0. -1.
          2   -1    0    0  503    0 -0.00000000000E+00 -0.00000000000E+00 -0.16025246901E+04  0.16025246901E+04  0.00000000000E+00 0.  1.
         21    1    1    2  503  504  0.30275178045E+02  0.73332439703E+02 -0.12030438068E+03  0.14410890718E+03  0.00000000000E+00 0. -1.
         21    1    1    2  504  502  0.34559188376E+02  0.13983516945E+03 -0.13558426098E+03  0.19781633891E+03  0.00000000000E+00 0. -1.
         21    1    1    2  505  501  0.38660533285E+02 -0.45944612941E+02 -0.90727916819E+02  0.10879843373E+03  0.00000000000E+00 0.  1.
          2    1    1    2  501    0 -0.10349489971E+03 -0.16722299622E+03 -0.11958231347E+04  0.12118860071E+04  0.00000000000E+00 0.  1.
<scales pt_clust_3="31.39867" pt_clust_4="31.39867" pt_clust_5="60.04618" pt_clust_6="199.80605"></scales>
<clustering>
<clus scale="   31.399">  3  4 -1 -1</clus>
<clus scale="   60.046">  1  5  2 -1</clus>
<clus scale="  199.806">  2  6  1 -1</clus>
<clus scale="   60.046">  1  3  2 -1</clus>
</clustering>
</event>
<event>
 6    0  0.6851428E+002  0.8099390E+02  0.7546771E-02  0.1326254E+00
          1   -1    0    0  503    0 -0.00000000000E+00  0.00000000000E+00  0.19341482545E+03  0.19341482545E+03  0.00000000000E+00 0. -1.
         21   -1    0    0  505  502  0.00000000000E+00 -0.00000000000E+00 -0.93811479930E+03  0.93811479930E+03  0.00000000000E+00 0.  1.
         21    1    1    2  503  504  0.50708563222E+02 -0.16622123025E+02 -0.19120076952E+02  0.56685365841E+02  0.00000000000E+00 0.  1.
         21    1    1    2  504  502  0.11931692308E+02 -0.46882781845E+02 -0.14419827616E+03  0.15209701957E+03  0.00000000000E+00 0.  1.
         21    1    1    2  505  501 -0.10071324340E+03  0.56961591895E+02 -0.74535618640E+03  0.75428351762E+03  0.00000000000E+00 0.  1.
          1    1    1    2  501    0  0.38072987875E+02  0.65433129742E+01  0.16397456567E+03  0.16846372172E+03  0.00000000000E+00 0. -1.
<scales pt_clust_3="80.99390" pt_clust_4="49.13934" pt_clust_5="14000.00000" pt_clust_6="38.63117"></scales>
<clustering>
<clus scale="   38.631">  1  6  2 -1</clus>
<clus scale="   49.139">  2  4  1 -1</clus>
<clus scale="   80.994">  1  3  2 -1</clus>
<clus scale="   49.139">  2  3  1 -1</clus>
</clustering>
</event>
<event>
 6    0  0.6851428E+002  0.2019521E+03  0.7546771E-02  0.1148102E+00
         21   -1    0    0  504  502  0.00000000000E+00  0.00000000000E+00  0.45715650259E+03  0.45715650259E+03  0.00000000000E+00 0. -1.
          2   -1    0    0  503    0 -0.00000000000E+00 -0.00000000000E+00 -0.20332543039E+04  0.20332543039E+04  0.00000000000E+00 0.  1.
         21    1    1    2  503  502 -0.15857922852E+03  0.83672643187E+02  0.31041666585E+03  0.35847871537E+03  0.00000000000E+00 0. -1.
         21    1    1    2  504  505  0.17833364660E+03 -0.39753324988E+02  0.14373907311E+02  0.18327527266E+03  0.00000000000E+00 0. -1.
         21    1    1    2  505  501  0.32969972090E+02  0.31935739976E+02 -0.37803062718E+00  0.45902651934E+02  0.00000000000E+00 0. -1.
          2    1    1    2  501    0 -0.52724390165E+02 -0.75855058175E+02 -0.19005103439E+04  0.19027541666E+04  0.00000000000E+00 0.  1.
<scales pt_clust_3="182.12184" pt_clust_4="43.74230" pt_clust_5="43.74230" pt_clust_6="92.37885"></scales>
<clustering>
<clus scale="   43.742">  4  5 -1 -1</clus>
<clus scale="   92.379">  2  6  1 -1</clus>
<clus scale="  182.122">  1  3  2 -1</clus>
<clus scale="  182.122">  1  3  2 -1</clus>
</clustering>
</event>
<event>
 6    0  0.8637486E+002  0.6498495E+02  0.7546771E-02  0.1378028E+00
          2   -1    0    0  505    0 -0.00000000000E+00  0.00000000000E+00  0.13830298465E+04  0.13830298465E+04  0.00000000000E+00 0. -1.
         21   -1    0    0  503  502  0.00000000000E+00 -0.00000000000E+00 -0.14562924740E+03  0.14562924740E+03  0.00000000000E+00 0.  1.
         21    1    1    2  503  501 -0.37587435827E+02 -0.20967736334E+02  0.48772896508E+02  0.65048110908E+02  0.00000000000E+00 0.  1.
         21    1    1    2  504  502  0.95157707610E+02  0.44486846482E+02 -0.11118223793E+03  0.15295606839E+03  0.00000000000E+00 0.  1.
         21    1    1    2  505  504  0.30168010150E+02 -0.12409050006E+02  0.65428653569E+02  0.73109521037E+02  0.00000000000E+00 0.  1.
          2    1    1    2  501    0 -0.87738281934E+02 -0.11110060142E+02  0.12343812870E+04  0.12375453936E+04  0.00000000000E+00 0. -1.
<scales pt_clust_3="42.17533" pt_clust_4="14000.00000" pt_clust_5="32.62044" pt_clust_6="64.98495"></scales>
<clustering>
<clus scale="   32.620">  1  5  2 -1</clus>
<clus scale="   42.175">  2  3  1 -1</clus>
<clus scale="   64.985">  1  6  2 -1</clus>
<clus scale="   42.175">  2  3  1 -1</clus>
</clustering>
</event>
<event>
 6    0  0.6851428E+002  0.9367019E+02  0.7546771E-02  0.1294200E+00
          3   -1    0    0  504    0 -0.00000000000E+00  0.00000000000E+00  0.21826584971E+03  0.21826584971E+03  0.00000000000E+00 0. -1.
         21   -1    0    0  505  502  0.00000000000E+00 -0.00000000000E+00 -0.23844785068E+03  0.23844785068E+03  0.00000000000E+00 0.  1.
         21    1    1    2  503  502 -0.12392742304E+02 -0.27406680745E+02 -0.95118691263E+01  0.31546503222E+02  0.00000000000E+00 0. -1.
         21    1    1    2  504  503  0.40168919824E+02 -0.98625348419E+02  0.39852483800E+02  0.11370453788E+03  0.00000000000E+00 0. -1.
         21    1    1    2  505  501 -0.65631750654E+02  0.76335327416E+02 -0.15788378016E+03  0.18724822280E+03  0.00000000000E+00 0.  1.
          3    1    1    2  501    0  0.37855573134E+02  0.49696701747E+02  0.10736116452E+03  0.12421443648E+03  0.00000000000E+00 0. -1.
<scales pt_clust_3="30.07833" pt_clust_4="93.67019" pt_clust_5="14000.00000" pt_clust_6="61.33957"></scales>
<clustering>
<clus scale="   30.078">  2  3  1 -1</clus>
<clus scale="   61.340">  1  6  2 -1</clus>
<clus scale="   93.670">  1  4  2 -1</clus>
<clus scale="   30.078">  2  3  1 -1</clus>
</clustering>
</event>
<event>
 6    0  0.6851428E+002  0.1238826E+03  0.7546771E-02  0.1236826E+00
         21   -1    0    0  501  502  0.00000000000E+00  0.00000000000E+00  0.46819759668E+03  0.46819759668E+03  0.00000000000E+00 0.  1.
          3   -1    0    0  505    0 -0.00000000000E+00 -0.00000000000E+00 -0.86498348146E+02  0.86498348146E+02  0.00000000000E+00 0. -1.
         21    1    1    2  503  502  0.43711054415E+02 -0.34293278889E+02  0.26159904787E+03  0.26743363121E+03  0.00000000000E+00 0.  1.
         21    1    1    2  504  503 -0.50994419789E+02 -0.50212767373E+02  0.23668667629E+02  0.75378768126E+02  0.00000000000E+00 0. -1.
         21    1    1    2  505  504 -0.49387238437E+02 -0.15704925686E+02 -0.12587441584E+02  0.53330926271E+02  0.00000000000E+00 0. -1.
          3    1    1    2  501    0  0.56670603811E+02  0.10021097195E+03  0.10901897462E+03  0.15855261922E+03  0.00000000000E+00 0. -1.
<scales pt_clust_3="55.55795" pt_clust_4="38.26288" pt_clust_5="38.26288" pt_clust_6="115.43450"></scales>
<clustering>
<clus scale="   38.263">  4  5 -1 -1</clus>
<clus scale="   55.558">  1  3  2 -1</clus>
<clus scale="  115.435">  1  6  2 -1</clus>
<clus scale="   55.558">  1  3  2 -1</clus>
</clustering>
</event>
<event>
 6    0  0.6851428E+002  0.1141479E+03  0.7546771E-02  0.1253076E+00
          2   -1    0    0  505    0 -0.00000000000E+00  0.00000000000E+00  0.36063203652E+03  0.36063203652E+03  0.00000000000E+00 0. -1.
         21   -1    0    0  504  502  0.00000000000E+00 -0.00000000000E+00 -0.37925900653E+03  0.37925900653E+03  0.00000000000E+00 0.  1.
         21    1    1    2  503  501  0.95891772754E+02  0.35838299131E+02 -0.75941297838E+02  0.12746252972E+03  0.00000000000E+00 0.  1.
         21    1    1    2  504  503  0.28101562921E+02 -0.16209185096E+02 -0.20999766544E+03  0.21248871737E+03  0.00000000000E+00 0.  1.
         21    1    1    2  505  502 -0.10236587321E+02 -0.47309191264E+02 -0.45194300960E+02  0.66222897379E+02  0.00000000000E+00 0.  1.
          2    1    1    2  501    0 -0.11375674835E+03  0.27680077229E+02  0.31250629422E+03  0.33371689858E+03  0.00000000000E+00 0. -1.
<scales pt_clust_3="14000.00000" pt_clust_4="32.44126" pt_clust_5="52.69165" pt_clust_6="114.14786"></scales>
<clustering>
<clus scale="   32.441">  2  4  1 -1</clus>
<clus scale="   52.692">  2  5  1 -1</clus>
<clus scale="  114.148">  1  6  2 -1</clus>
<clus scale="   32.441">  2  3  1 -1</clus>
</clustering>
</event>
<event>
 6    0  0.6851428E+002  0.1676150E+03  0.7546771E-02  0.1180358E+00
          1   -1    0    0  502    0 -0.00000000000E+00  0.00000000000E+00  0.80194134097E+03  0.80194134097E+03  0.00000000000E+00 0.  1.
         21   -1    0    0  505  502  0.00000000000E+00 -0.00000000000E+00 -0.51495238855E+03  0.51495238855E+03  0.00000000000E+00 0.  1.
         21    1    1    2  503  504 -0.82749441666E+02  0.10249496561E+03  0.28199026504E+02  0.13471404220E+03  0.00000000000E+00 0.  1.
         21    1    1    2  504  501  0.41637102165E+02  0.10501416831E+03  0.23013428340E+03  0.25636577817E+03  0.00000000000E+00 0.  1.
         21    1    1    2  505  503  0.18223197494E+02 -0.17873428021E+03 -0.42982454730E+03  0.46586174914E+03  0.00000000000E+00 0.  1.
          1    1    1    2  501    0  0.22889142006E+02 -0.28774853702E+02  0.45848018982E+03  0.45995216000E+03  0.00000000000E+00 0.  1.
<scales pt_clust_3="167.61500" pt_clust_4="102.49913" pt_clust_5="14000.00000" pt_clust_6="36.76826"></scales>
<clustering>
<clus scale="   36.768">  1  6  2 -1</clus>
<clus scale="  102.499">  1  4  2 -1</clus>
<clus scale="  167.615">  1  3  2 -1</clus>
<clus scale="  167.615">  2  3  1 -1</clus>
</clustering>
</event>
<event>
 6    0  0.6851428E+002  0.7060184E+02  0.7546771E-02  0.1358058E+00
         21   -1    0    0  504  502  0.00000000000E+00  0.00000000000E+00  0.54955053251E+03  0.54955053251E+03  0.00000000000E+00 0. -1.
          4   -1    0    0  505    0 -0.00000000000E+00 -0.00000000000E+00 -0.10497973717E+03  0.10497973717E+03  0.00000000000E+00 0. -1.
         21    1    1    2  503  502 -0.16166265071E+02  0.68679916653E+02  0.40549829919E+03  0.41159099811E+03  0.00000000000E+00 0. -1.
         21    1    1    2  504  501 -0.29233551302E+02 -0.78142555313E+02  0.42022916002E+02  0.93417262547E+02  0.00000000000E+00 0. -1.
         21    1    1    2  505  503 -0.45886293736E+02  0.25193802947E+02  0.16467971659E+02  0.54876896325E+02  0.00000000000E+00 0.  1.
          4    1    1    2  501    0  0.91286110108E+02 -0.15731164287E+02 -0.19418391514E+02  0.94645112697E+02  0.00000000000E+00 0. -1.
<scales pt_clust_3="70.60184" pt_clust_4="14000.00000" pt_clust_5="52.34768" pt_clust_6="60.78500"></scales>
<clustering>
<clus scale="   52.348">  2  5  1 -1</clus>
<clus scale="   60.785">  2  6  1 -1</clus>
<clus scale="   70.602">  1  3  2 -1</clus>
<clus scale="   70.602">  1  3  2 -1</clus>
</clustering>
</event>
<event>
 6    0  0.6851428E+002  0.1584079E+03  0.7546771E-02  0.1190506E+00
         21   -1    0    0  503  502  0.00000000000E+00  0.00000000000E+00  0.27394628763E+03  0.27394628763E+03  0.00000000000E+00 0. -1.
         -1   -1    0    0    0  501 -0.00000000000E+00 -0.00000000000E+00 -0.10241983812E+04  0.10241983812E+04  0.00000000000E+00 0.  1.
         21    1    1    2  503  505 -0.34328846745E+02 -0.81427408717E+02  0.16450051080E+03  0.18673326073E+03  0.00000000000E+00 0. -1.
         21    1    1    2  504  501  0.87563623439E+02  0.10043671266E+03 -0.11480258422E+03  0.17588221838E+03  0.00000000000E+00 0.  1.
         21    1    1    2  505  504  0.10742430497E+03  0.36446009907E+02  0.42966690087E+01  0.11351984100E+03  0.00000000000E+00 0. -1.
         -1    1    1    2    0  502 -0.16065908166E+03 -0.55455313854E+02 -0.80424668917E+03  0.82200934873E+03  0.00000000000E+00 0.  1.
<scales pt_clust_3="88.36794" pt_clust_4="158.40785" pt_clust_5="87.72990" pt_clust_6="14000.00000"></scales>
<clustering>
<clus scale="   88.368">  1  3  2 -1</clus>
<clus scale="   87.730">  1  5  2 -1</clus>
<clus scale="  158.408">  1  4  2 -1</clus>
<clus scale="   88.368">  1  3  2 -1</clus>
</clustering>
</event>
<event>
 6    0  0.6851428E+002  0.8949761E+02  0.7546771E-02  0.1304073E+00
          2   -1    0    0  503    0 -0.00000000000E+00  0.00000000000E+00  0.78786729433E+03  0.78786729433E+03  0.00000000000E+00 0.  1.
         21   -1    0    0  505  502  0.00000000000E+00 -0.00000000000E+00 -0.35165337239E+02  0.35165337239E+02  0.00000000000E+00 0. -1.
         21    1    1    2  503  504 -0.79092374664E+02  0.12406417981E+02  0.25599293644E+03  0.26821988451E+03  0.00000000000E+00 0. -1.
         21    1    1    2  504  502 -0.41522054917E+02  0.19416560592E+02  0.48279478989E+02  0.66573207532E+02  0.00000000000E+00 0. -1.
         21    1    1    2  505  501  0.23376014907E+02 -0.21957054703E+02  0.29976660911E+01  0.32210810703E+02  0.00000000000E+00 0. -1.
          2    1    1    2  501    0  0.97238414674E+02 -0.98659238697E+01  0.44543187557E+03  0.45602872883E+03  0.00000000000E+00 0.  1.
<scales pt_clust_3="89.49761" pt_clust_4="32.58281" pt_clust_5="32.07102" pt_clust_6="14000.00000"></scales>
<clustering>
<clus scale="   32.071">  2  5  1 -1</clus>
<clus scale="   32.583">  2  4  1 -1</clus>
<clus scale="   89.498">  2  3  1 -1</clus>
<clus scale="   32.071">  2  3  1 -1</clus>
</clustering>
</event>
<event>
 6    0  0.6851428E+002  0.1506338E+03  0.7546771E-02  0.1199696E+00
          1   -1    0    0  503    0 -0.00000000000E+00  0.00000000000E+00  0.15819153851E+04  0.15819153851E+04  0.00000000000E+00 0.  1.
         21   -1    0    0  504  502  0.00000000000E+00 -0.00000000000E+00 -0.11628834070E+04  0.11628834070E+04  0.00000000000E+00 0.  1.
         21    1    1    2  503  505 -0.27135963971E+02 -0.10314683137E+03 -0.62284411570E+02  0.12351104115E+03  0.00000000000E+00 0.  1.
         21    1    1    2  504  501  0.71608405537E+02 -0.24066816297E+02  0.50664469800E+01  0.75714227694E+02  0.00000000000E+00 0. -1.
         21    1    1    2  505  502 -0.41479748144E+01  0.16026635972E+03 -0.10279970366E+04  0.10404231923E+04  0.00000000000E+00 0.  1.
          1    1    1    2  501    0 -0.40324466752E+02 -0.33052712053E+02  0.15042469793E+04  0.15051503310E+04  0.00000000000E+00 0.  1.
<scales pt_clust_3="150.63381" pt_clust_4="65.28506" pt_clust_5="14000.00000" pt_clust_6="52.13966"></scales>
<clustering>
<clus scale="   52.140">  1  6  2 -1</clus>
<clus scale="   65.285">  1  4  2 -1</clus>
<clus scale="  150.634">  1  3  2 -1</clus>
<clus scale="  150.634">  2  3  1 -1</clus>
</clustering>
</event>
<event>
 6    0  0.6851428E+002  0.1457588E+03  0.7546771E-02  0.1205784E+00
         21   -1    0    0  503  502  0.00000000000E+00  0.00000000000E+00  0.17052298249E+02  0.17052298249E+02  0.00000000000E+00 0.  1.
          2   -1    0    0  504    0 -0.00000000000E+00 -0.00000000000E+00 -0.21936951210E+04  0.21936951210E+04  0.00000000000E+00 0.  1.
         21    1    1    2  503  505 -0.19589834043E+02 -0.85163617207E+02 -0.27573874976E+03  0.28925501104E+03  0.00000000000E+00 0.  1.
         21    1    1    2  504  502 -0.65347834035E+02  0.43514588687E+02 -0.43922590150E+03  0.44618746216E+03  0.00000000000E+00 0. -1.
         21    1    1    2  505  501 -0.62042704600E+01 -0.61314413471E+02 -0.38956184616E+03  0.39440636691E+03  0.00000000000E+00 0.  1.
          2    1    1    2  501    0  0.91141938538E+02  0.10296344199E+03 -0.10721163253E+04  0.10808985791E+04  0.00000000000E+00 0.  1.
<scales pt_clust_3="43.20427" pt_clust_4="78.51025" pt_clust_5="43.20427" pt_clust_6="136.37735"></scales>
<clustering>
<clus scale="   43.204">  3  5 -1 -1</clus>
<clus scale="   78.510">  1  4  2 -1</clus>
<clus scale="  136.377">  2  6  1 -1</clus>
<clus scale="   78.510">  1  3  2 -1</clus>
</clustering>
</event>
<event>
 6    0  0.6851428E+002  0.1522429E+03  0.7546771E-02  0.1197744E+00
         21   -1    0    0  503  502  0.00000000000E+00  0.00000000000E+00  0.21728978316E+03  0.21728978316E+03  0.00000000000E+00 0. -1.
          2   -1    0    0  504    0 -0.00000000000E+00 -0.00000000000E+00 -0.19645577748E+04  0.19645577748E+04  0.00000000000E+00 0. -1.
         21    1    1    2  503  505  0.55052033376E+02  0.37995768498E+02  0.79551685311E+02  0.10393688199E+03  0.00000000000E+00 0. -1.
         21    1    1    2  504  502 -0.78092081326E+02 -0.48444300694E+02 -0.52985347230E+03  0.53776381948E+03  0.00000000000E+00 0. -1.
         21    1    1    2  505  501  0.86697015750E+02 -0.15518122458E+02  0.10468709972E+03  0.13680852866E+03  0.00000000000E+00 0. -1.
          2    1    1    2  501    0 -0.63656967800E+02  0.25966654653E+02 -0.14016533044E+04  0.14033383279E+04  0.00000000000E+00 0. -1.
<scales pt_clust_3="50.93792" pt_clust_4="140.57562" pt_clust_5="50.93792" pt_clust_6="68.74938"></scales>
<clustering>
<clus scale="   50.938">  3  5 -1 -1</clus>
<clus scale="   68.749">  2  6  1 -1</clus>
<clus scale="  140.576">  2  4  1 -1</clus>
<clus scale="  152.243">  1  3  2 -1</clus>
</clustering>
</event>
<event>
 6    0  0.6851428E+002  0.1214821E+03  0.7546771E-02  0.1240672E+00
         21   -1    0    0  503  502  0.00000000000E+00  0.00000000000E+00  0.12363532287E+03  0.12363532287E+03  0.00000000000E+00 0.  1.
          3   -1    0    0  502    0 -0.00000000000E+00 -0.00000000000E+00 -0.63465458489E+03  0.63465458489E+03  0.00000000000E+00 0. -1.
         21    1    1    2  503  505  0.34212321854E+02 -0.24817538214E+02  0.71610568673E+02  0.83153272427E+02  0.00000000000E+00 0.  1.
         21    1    1    2  504  501 -0.32705862733E+02 -0.45358819484E+02 -0.45135476230E+02  0.71863114159E+02  0.00000000000E+00 0.  1.
         21    1    1    2  505  504 -0.11589987384E+02 -0.41484890583E+02  0.10164393848E+02  0.44256512024E+02  0.00000000000E+00 0.  1.
          3    1    1    2  501    0  0.10083528264E+02  0.11166124828E+03 -0.54765874831E+03  0.55901700914E+03  0.00000000000E+00 0. -1.
<scales pt_clust_3="42.26574" pt_clust_4="52.25678" pt_clust_5="52.25678" pt_clust_6="109.54933"></scales>
<clustering>
<clus scale="   42.266">  1  3  2 -1</clus>
<clus scale="   52.257">  4  5 -1 -1</clus>
<clus scale="  109.549">  2  6  1 -1</clus>
<clus scale="   42.266">  1  3  2 -1</clus>
</clustering>
</event>
<event>
 6    0  0.6851428E+002  0.1110444E+03  0.7546771E-02  0.1258648E+00
         21   -1    0    0  505  502  0.00000000000E+00  0.00000000000E+00  0.53785207845E+02  0.53785207845E+02  0.00000000000E+00 0. -1.
         -1   -1    0    0    0  501 -0.00000000000E+00 -0.00000000000E+00 -0.13923214882E+04  0.13923214882E+04  0.00000000000E+00 0. -1.
         21    1    1    2  503  501 -0.88907118981E+01  0.31771462382E+02 -0.34335286340E+03  0.34493428271E+03  0.00000000000E+00 0. -1.
         21    1    1    2  504  502  0.99001349521E+02 -0.33563213888E+02 -0.89418815213E+02  0.13756264408E+03  0.00000000000E+00 0.  1.
         21    1    1    2  505  503 -0.12627460931E+03 -0.27961243199E+02 -0.11993041670E+03  0.17638144157E+03  0.00000000000E+00 0. -1.
         -1    1    1    2    0  504  0.36163971689E+02  0.29752994706E+02 -0.78583418505E+03  0.78722832770E+03  0.00000000000E+00 0. -1.
<scales pt_clust_3="32.99198" pt_clust_4="111.04441" pt_clust_5="14000.00000" pt_clust_6="61.17263"></scales>
<clustering>
<clus scale="   32.992">  2  3  1 -1</clus>
<clus scale="   61.173">  2  6  1 -1</clus>
<clus scale="  111.044">  1  4  2 -1</clus>
<clus scale="  111.044">  1  3  2 -1</clus>
</clustering>
</event>
<event>
 6    0  0.6851428E+002  0.1283632E+03  0.7546771E-02  0.1229905E+00
          2   -1    0    0  504    0 -0.00000000000E+00  0.00000000000E+00  0.19018951960E+04  0.19018951960E+04  0.00000000000E+00 0.  1.
         21   -1    0    0  501  502  0.00000000000E+00 -0.00000000000E+00 -0.76046679941E+02  0.76046679941E+02  0.00000000000E+00 0.  1.
         21    1    1    2  503  505  0.60981225094E+02 -0.85611744984E+01  0.25212909051E+03  0.25954013524E+03  0.00000000000E+00 0. -1.
         21    1    1    2  504  503  0.19008492977E+02 -0.30248878309E+02  0.10823204822E+03  0.11397584702E+03  0.00000000000E+00 0.  1.
         21    1    1    2  505  502  0.23154106135E+02 -0.52882327989E+02 -0.53782918158E+02  0.78900288530E+02  0.00000000000E+00 0.  1.
          2    1    1    2  501    0 -0.10314382421E+03  0.91692380797E+02  0.15192702955E+04  0.15255256051E+04  0.00000000000E+00 0.  1.
<scales pt_clust_3="31.85847" pt_clust_4="31.85847" pt_clust_5="57.72914" pt_clust_6="121.35756"></scales>
<clustering>
<clus scale="   31.858">  3  4 -1 -1</clus>
<clus scale="   57.729">  2  5  1 -1</clus>
<clus scale="  121.358">  1  6  2 -1</clus>
<clus scale="   57.729">  2  3  1 -1</clus>
</clustering>
</event>
<event>
 6    0  0.6851428E+002  0.9390231E+02  0.7546771E-02  0.1293668E+00
         21   -1    0    0  503  502  0.00000000000E+00  0.00000000000E+00  0.27513274113E+03  0.27513274113E+03  0.00000000000E+00 0. -1.
          2   -1    0    0  505    0 -0.00000000000E+00 -0.00000000000E+00 -0.16639719523E+04  0.16639719523E+04  0.00000000000E+00 0.  1.
         21    1    1    2  503  501 -0.10078524862E+03  0.20843156616E+02  0.22748913768E+03  0.24968662615E+03  0.00000000000E+00 0. -1.
         21    1    1    2  504  502  0.88822384205E+01 -0.39087346113E+02  0.16501997606E+02  0.43347787839E+02  0.00000000000E+00 0.  1.
         21    1    1    2  505  504  0.11135410064E+03 -0.57466352052E+02 -0.82431810969E+03  0.83378802061E+03  0.00000000000E+00 0.  1.
          2    1    1    2  501    0 -0.19451090441E+02  0.75710541550E+02 -0.80851223675E+03  0.81228225882E+03  0.00000000000E+00 0.  1.
<scales pt_clust_3="93.90231" pt_clust_4="40.08385" pt_clust_5="14000.00000" pt_clust_6="77.86123"></scales>
<clustering>
<clus scale="   40.084">  1  4  2 -1</clus>
<clus scale="   77.861">  2  6  1 -1</clus>
<clus scale="   93.902">  1  3  2 -1</clus>
<clus scale="   40.084">  1  3  2 -1</clus>
</clustering>
</event>
<event>
 6    0  0.6851428E+002  0.8123985E+02  0.7546771E-02  0.1325569E+00
          2   -1    0    0  505    0 -0.00000000000E+00  0.00000000000E+00  0.71042283679E+03  0.71042283679E+03  0.00000000000E+00 0. -1.
         21   -1    0    0  503  502  0.00000000000E+00 -0.00000000000E+00 -0.71495785024E+03  0.71495785024E+03  0.00000000000E+00 0.  1.
         21    1    1    2  503  501 -0.59421838320E+02  0.25134881838E+02 -0.22064344209E+02  0.68187626735E+02  0.00000000000E+00 0. -1.
         21    1    1    2  504  502  0.50109582613E+02 -0.20612874351E+02 -0.26617813438E+03  0.27163700058E+03  0.00000000000E+00 0.  1.
         21    1    1    2  505  504  0.26836715702E+02  0.74820090555E+02 -0.39453559236E+03  0.40246315222E+03  0.00000000000E+00 0.  1.
          2    1    1    2  501    0 -0.17524459995E+02 -0.79342098042E+02  0.67824305750E+03  0.68309290749E+03  0.00000000000E+00 0. -1.
<scales pt_clust_3="59.03778" pt_clust_4="54.18358" pt_clust_5="14000.00000" pt_clust_6="81.23985"></scales>
<clustering>
<clus scale="   54.184">  2  4  1 -1</clus>
<clus scale="   59.038">  2  3  1 -1</clus>
<clus scale="   81.240">  1  6  2 -1</clus>
<clus scale="   54.184">  2  3  1 -1</clus>
</clustering>
</event>
<event>
 6    0  0.6851428E+002  0.1413954E+03  0.7546771E-02  0.1211464E+00
         -2   -1    0    0    0  501 -0.00000000000E+00  0.00000000000E+00  0.22457843582E+03  0.22457843582E+03  0.00000000000E+00 0. -1.
         21   -1    0    0  505  502  0.00000000000E+00 -0.00000000000E+00 -0.62954408997E+03  0.62954408997E+03  0.00000000000E+00 0.  1.
         21    1    1    2  503  501 -0.63739755560E+02  0.24741205925E+02  0.12267887847E+02  0.69464989611E+02  0.00000000000E+00 0.  1.
         21    1    1    2  504  503 -0.36119475873E+02  0.64716873332E+02  0.18493702043E+02  0.76386564568E+02  0.00000000000E+00 0.  1.
         21    1    1    2  505  504 -0.21279148479E+02 -0.31909514101E+02 -0.53815334353E+03  0.53951834112E+03  0.00000000000E+00 0.  1.
         -2    1    1    2    0  502  0.12113837991E+03 -0.57548565156E+02  0.10242609949E+03  0.16875263049E+03  0.00000000000E+00 0. -1.
<scales pt_clust_3="47.62131" pt_clust_4="47.62131" pt_clust_5="38.35387" pt_clust_6="132.81894"></scales>
<clustering>
<clus scale="   38.354">  2  5  1 -1</clus>
<clus scale="   47.621">  3  4 -1 -1</clus>
<clus scale="  132.819">  1  6  2 -1</clus>
<clus scale="   38.354">  2  3  1 -1</clus>
</clustering>
</event>
<event>
 6    0  0.6851428E+002  0.2241922E+03  0.7546771E-02  0.1130796E+00
          1   -1    0    0  503    0 -0.00000000000E+00  0.00000000000E+00  0.10674213138E+04  0.10674213138E+04  0.00000000000E+00 0. -1.
         21   -1    0    0  501  502  0.00000000000E+00 -0.00000000000E+00 -0.12012021904E+04  0.12012021904E+04  0.00000000000E+00 0.  1.
         21    1    1    2  503  505  0.49712619850E+01  0.32184954996E+02  0.50904692346E+02  0.60430724608E+02  0.00000000000E+00 0. -1.
         21    1    1    2  504  502  0.16852598947E+02 -0.27492523576E+02 -0.10864278555E+04  0.10869063134E+04  0.00000000000E+00 0.  1.
         21    1    1    2  505  504  0.25933274820E+02  0.23850202965E+03  0.64922637385E+02  0.24853712346E+03  0.00000000000E+00 0. -1.
          1    1    1    2  501    0 -0.47757135753E+02 -0.24319446107E+03  0.83681964919E+03  0.87274934270E+03  0.00000000000E+00 0. -1.
<scales pt_clust_3="31.55562" pt_clust_4="32.24669" pt_clust_5="14000.00000" pt_clust_6="224.19223"></scales>
<clustering>
<clus scale="   32.247">  2  4  1 -1</clus>
<clus scale="   31.556">  1  3  2 -1</clus>
<clus scale="  224.192">  1  6  2 -1</clus>
<clus scale="   32.247">  2  3  1 -1</clus>
</clustering>
</event>
<event>
 6    0  0.6851428E+002  0.1880059E+03  0.7546771E-02  0.1160272E+00
         21   -1    0    0  503  502  0.00000000000E+00  0.00000000000E+00  0.44806717651E+03  0.44806717651E+03  0.00000000000E+00 0. -1.
          1   -1    0    0  505    0 -0.00000000000E+00 -0.00000000000E+00 -0.23668030223E+03  0.23668030223E+03  0.00000000000E+00 0.  1.
         21    1    1    2  503  501 -0.48548939849E+02 -0.18366961003E+03  0.24336092912E+03  0.30873300282E+03  0.00000000000E+00 0. -1.
         21    1    1    2  504  502  0.10352771223E+03  0.38536057353E+02  0.43601036845E+02  0.11876053777E+03  0.00000000000E+00 0.  1.
         21    1    1    2  505  504 -0.18760485618E+02 -0.46633614407E+02 -0.90805330191E+01  0.51079407721E+02  0.00000000000E+00 0. -1.
          1    1    1    2  501    0 -0.36218286766E+02  0.19176716709E+03 -0.66494558663E+02  0.20617453043E+03  0.00000000000E+00 0.  1.
<scales pt_clust_3="188.00594" pt_clust_4="104.52886" pt_clust_5="50.26579" pt_clust_6="14000.00000"></scales>
<clustering>
<clus scale="   50.266">  2  5  1 -1</clus>
<clus scale="  104.529">  2  4  1 -1</clus>
<clus scale="  188.006">  1  3  2 -1</clus>
<clus scale="  188.006">  1  3  2 -1</clus>
</clustering>
</event>
<event>
 6    0  0.6851428E+002  0.1588795E+03  0.7546771E-02  0.1189968E+00
         21   -1    0    0  504  502  0.00000000000E+00  0.00000000000E+00  0.32699281234E+03  0.32699281234E+03  0.00000000000E+00 0. -1.
          2   -1    0    0  502    0 -0.00000000000E+00 -0.00000000000E+00 -0.78471413781E+03  0.78471413781E+03  0.00000000000E+00 0. -1.
         21    1    1    2  503  501  0.57398130028E+02 -0.35289889752E+02  0.19064360534E+02  0.70024077944E+02  0.00000000000E+00 0. -1.
         21    1    1    2  504  505 -0.56921061318E+02  0.15097395713E+03  0.19055551277E+03  0.24968889924E+03  0.00000000000E+00 0. -1.
         21    1    1    2  505  503  0.15677040595E+01 -0.67271056471E+02  0.43095514977E+02  0.79906671472E+02  0.00000000000E+00 0. -1.
          2    1    1    2  501    0 -0.20447727687E+01 -0.48413010910E+02 -0.71043671374E+03  0.71208730150E+03  0.00000000000E+00 0. -1.
<scales pt_clust_3="66.92158" pt_clust_4="143.60718" pt_clust_5="66.92158" pt_clust_6="48.45617"></scales>
<clustering>
<clus scale="   48.456">  2  6  1 -1</clus>
<clus scale="   66.922">  3  5 -1 -1</clus>
<clus scale="  143.607">  1  4  2 -1</clus>
<clus scale="  143.607">  1  3  2 -1</clus>
</clustering>
</event>
<event>
 6    0  0.6851428E+002  0.1364641E+03  0.7546771E-02  0.1218168E+00
         -1   -1    0    0    0  501 -0.00000000000E+00  0.00000000000E+00  0.17532436017E+04  0.17532436017E+04  0.00000000000E+00 0. -1.
         21   -1    0    0  503  502  0.00000000000E+00 -0.00000000000E+00 -0.56693603369E+02  0.56693603369E+02  0.00000000000E+00 0. -1.
         21    1    1    2  503  504  0.91450081614E+02  0.73990094004E+02  0.13303979277E+03  0.17758726840E+03  0.00000000000E+00 0. -1.
         21    1    1    2  504  505 -0.86692666230E+02 -0.14979676592E+03  0.22226537129E+03  0.28170300803E+03  0.00000000000E+00 0. -1.
         21    1    1    2  505  501  0.41344772765E+02  0.91790425689E+01  0.13063049434E+03  0.13732432818E+03  0.00000000000E+00 0. -1.
         -1    1    1    2    0  502 -0.46102188150E+02  0.66627629350E+02  0.12106143399E+04  0.12133226005E+04  0.00000000000E+00 0. -1.
<scales pt_clust_3="136.46406" pt_clust_4="14000.00000" pt_clust_5="42.35145" pt_clust_6="75.04443"></scales>
<clustering>
<clus scale="   42.351">  1  5  2 -1</clus>
<clus scale="   75.044">  1  6  2 -1</clus>
<clus scale="  136.464">  2  3  1 -1</clus>
<clus scale="  136.464">  2  3  1 -1</clus>
</clustering>
</event>
<event>
 6    0  0.6851428E+002  0.1622513E+03  0.7546771E-02  0.1186178E+00
         21   -1    0    0  503  502  0.00000000000E+00  0.00000000000E+00  0.11893089015E+03  0.11893089015E+03  0.00000000000E+00 0. -1.
         -1   -1    0    0    0  501 -0.00000000000E+00 -0.00000000000E+00 -0.40815887343E+03  0.40815887343E+03  0.00000000000E+00 0. -1.
         21    1    1    2  503  501  0.12694977356E+02  0.14429169347E+03 -0.10393283550E+03  0.17827868507E+03  0.00000000000E+00 0. -1.
         21    1    1    2  504  502 -0.43574427750E+02  0.78269508350E+01  0.45528661891E+02  0.63504731845E+02  0.00000000000E+00 0. -1.
         21    1    1    2  505  504  0.31033101479E+02 -0.27147362481E+02 -0.41863666461E+02  0.58758822714E+02  0.00000000000E+00 0.  1.
         -1    1    1    2    0  505 -0.15365108499E+00 -0.12497128182E+03 -0.18896014321E+03  0.22654752395E+03  0.00000000000E+00 0. -1.
<scales pt_clust_3="149.32859" pt_clust_4="44.27180" pt_clust_5="36.44774" pt_clust_6="36.44774"></scales>
<clustering>
<clus scale="   36.448">  5  6 -1 -1</clus>
<clus scale="   44.272">  1  4  2 -1</clus>
<clus scale="  149.329">  1  3  2 -1</clus>
<clus scale="   44.272">  1  3  2 -1</clus>
</clustering>
</event>
<event>
 6    0  0.6851428E+002  0.5493595E+02  0.7546771E-02  0.1420402E+00
         21   -1    0    0  505  502  0.00000000000E+00  0.00000000000E+00  0.77884595447E+03  0.77884595447E+03  0.00000000000E+00 0. -1.
          2   -1    0    0  504    0 -0.00000000000E+00 -0.00000000000E+00 -0.15659784278E+04  0.15659784278E+04  0.00000000000E+00 0. -1.
         21    1    1    2  503  502 -0.45550238261E+02  0.26446444298E+02  0.42289617912E+03  0.42616360349E+03  0.00000000000E+00 0. -1.
         21    1    1    2  504  503 -0.31616916723E+02 -0.94003680198E+02  0.27827787193E+03  0.29542324776E+03  0.00000000000E+00 0. -1.
         21    1    1    2  505  501  0.32469949234E+02  0.35692250707E+02  0.58288364326E+02  0.75668803212E+02  0.00000000000E+00 0. -1.
          2    1    1    2  501    0  0.44697205750E+02  0.31864985194E+02 -0.15465948888E+04  0.15475687279E+04  0.00000000000E+00 0. -1.
<scales pt_clust_3="54.44322" pt_clust_4="14000.00000" pt_clust_5="48.25178" pt_clust_6="54.93595"></scales>
<clustering>
<clus scale="   48.252">  1  5  2 -1</clus>
<clus scale="   54.443">  1  3  2 -1</clus>
<clus scale="   54.936">  2  6  1 -1</clus>
<clus scale="   48.252">  1  3  2 -1</clus>
</clustering>
</event>
<event>
 6    0  0.6851428E+002  0.1889892E+03  0.7546771E-02  0.1159376E+00
          4   -1    0    0  503    0 -0.00000000000E+00  0.00000000000E+00  0.26118652544E+03  0.26118652544E+03  0.00000000000E+00 0.  1.
         21   -1    0    0  505  502  0.00000000000E+00 -0.00000000000E+00 -0.20323568811E+03  0.20323568811E+03  0.00000000000E+00 0.  1.
         21    1    1    2  503  502 -0.33815987015E+01 -0.16947408626E+03 -0.26860035226E+02  0.17162273339E+03  0.00000000000E+00 0.  1.
         21    1    1    2  504  501 -0.36323405687E+02  0.35099132095E+02  0.23415684665E+01  0.50565025635E+02  0.00000000000E+00 0.  1.
         21    1    1    2  505  504  0.11202421530E+02  0.14449457445E+03 -0.96773385718E+01  0.14525091110E+03  0.00000000000E+00 0.  1.
          4    1    1    2  501    0  0.28502582859E+02 -0.10119620285E+02  0.92146642655E+02  0.96983543434E+02  0.00000000000E+00 0.  1.
<scales pt_clust_3="174.10289" pt_clust_4="41.89556" pt_clust_5="41.89556" pt_clust_6="30.24573"></scales>
<clustering>
<clus scale="   30.246">  1  6  2 -1</clus>
<clus scale="   41.896">  4  5 -1 -1</clus>
<clus scale="  174.103">  2  3  1 -1</clus>
<clus scale="  174.103">  2  3  1 -1</clus>
</clustering>
</event>
<event>
 6    0  0.6851428E+002  0.1409673E+03  0.7546771E-02  0.1212033E+00
         21   -1    0    0  505  502  0.00000000000E+00  0.00000000000E+00  0.99067964691E+02  0.99067964691E+02  0.00000000000E+00 0. -1.
          2   -1    0    0  503    0 -0.00000000000E+00 -0.00000000000E+00 -0.73882704070E+03  0.73882704070E+03  0.00000000000E+00 0. -1.
         21    1    1    2  503  504 -0.20237240507E+01 -0.42920345443E+02 -0.10162709087E+03  0.11033728795E+03  0.00000000000E+00 0.  1.
         21    1    1    2  504  502 -0.10611929085E+03  0.68855590550E+02  0.41985348902E+02  0.13328602989E+03  0.00000000000E+00 0. -1.
         21    1    1    2  505  501  0.26961535498E+02 -0.34477573098E+02 -0.27323586906E+03  0.27671911316E+03  0.00000000000E+00 0.  1.
          2    1    1    2  501    0  0.81181479401E+02  0.85423279915E+01 -0.30688146497E+03  0.31755257440E+03  0.00000000000E+00 0. -1.
<scales pt_clust_3="42.96803" pt_clust_4="124.96649" pt_clust_5="55.70027" pt_clust_6="55.70027"></scales>
<clustering>
<clus scale="   42.968">  2  3  1 -1</clus>
<clus scale="   55.700">  5  6 -1 -1</clus>
<clus scale="  124.966">  1  4  2 -1</clus>
<clus scale="  124.966">  1  3  2 -1</clus>
</clustering>
</event>
<event>
 6    0  0.6851428E+002  0.2615630E+03  0.7546771E-02  0.1106208E+00
         21   -1    0    0  501  502  0.00000000000E+00  0.00000000000E+00  0.10740757286E+04  0.10740757286E+04  0.00000000000E+00 0.  1.
          2   -1    0    0  504    0 -0.00000000000E+00 -0.00000000000E+00 -0.27614396863E+03  0.27614396863E+03  0.00000000000E+00 0. -1.
         21    1    1    2  503  505 -0.21741879052E+03 -0.11447419714E+03  0.45386231426E+03  0.51610684222E+03  0.00000000000E+00 0.  1.
         21    1    1    2  504  503  0.23104457087E+03  0.12404889002E+03  0.20106179215E+03  0.33044752248E+03  0.00000000000E+00 0.  1.
         21    1    1    2  505  502 -0.47230367294E+02  0.10126105824E+02  0.31939547729E+03  0.32302742380E+03  0.00000000000E+00 0.  1.
          2    1    1    2  501    0  0.33604586943E+02 -0.19700798706E+02 -0.17638782370E+03  0.18063790877E+03  0.00000000000E+00 0. -1.
<scales pt_clust_3="261.56299" pt_clust_4="14000.00000" pt_clust_5="47.61624" pt_clust_6="38.95369"></scales>
<clustering>
<clus scale="   38.954">  2  6  1 -1</clus>
<clus scale="   47.616">  1  5  2 -1</clus>
<clus scale="  261.563">  1  3  2 -1</clus>
<clus scale="   47.616">  1  3  2 -1</clus>
</clustering>
</event>
<event>
 6    0  0.6851428E+002  0.1050701E+03  0.7546771E-02  0.1269982E+00
          1   -1    0    0  504    0 -0.00000000000E+00  0.00000000000E+00  0.51986529234E+03  0.51986529234E+03  0.00000000000E+00 0. -1.
         21   -1    0    0  503  502  0.00000000000E+00 -0.00000000000E+00 -0.81535260225E+03  0.81535260225E+03  0.00000000000E+00 0.  1.
         21    1    1    2  503  505  0.21524537853E+02  0.38861902097E+02 -0.18417490955E+03  0.18945698845E+03  0.00000000000E+00 0. -1.
         21    1    1    2  504  502 -0.48791009842E+02  0.65513291564E+02 -0.58307073960E+03  0.58876484388E+03  0.00000000000E+00 0.  1.
         21    1    1    2  505  501  0.56981737092E+02 -0.89181151195E+02  0.24675907349E+02  0.10866966685E+03  0.00000000000E+00 0. -1.
          1    1    1    2  501    0 -0.29715265104E+02 -0.15194042465E+02  0.44708243189E+03  0.44832639540E+03  0.00000000000E+00 0. -1.
<scales pt_clust_3="43.41665" pt_clust_4="14000.00000" pt_clust_5="105.07007" pt_clust_6="33.37448"></scales>
<clustering>
<clus scale="   33.374">  1  6  2 -1</clus>
<clus scale="   43.417">  2  3  1 -1</clus>
<clus scale="  105.070">  1  5  2 -1</clus>
<clus scale="   43.417">  2  3  1 -1</clus>
</clustering>
</event>
<event>
 6    0  0.6851428E+002  0.1041851E+03  0.7546771E-02  0.1271734E+00
         21   -1    0    0  503  502  0.00000000000E+00  0.00000000000E+00  0.94407282783E+02  0.94407282783E+02  0.00000000000E+00 0.  1.
          2   -1    0    0  504    0 -0.00000000000E+00 -0.00000000000E+00 -0.47080216568E+04  0.47080216568E+04  0.00000000000E+00 0.  1.
         21    1    1    2  503  505  0.39753781975E+02 -0.30342360097E+01  0.45683549164E+02  0.60634614155E+02  0.00000000000E+00 0.  1.
         21    1    1    2  504  502  0.22115045141E+02 -0.14474250702E+03 -0.13289226177E+03  0.19773674873E+03  0.00000000000E+00 0.  1.
         21    1    1    2  505  501 -0.28253477261E+02  0.49949155864E+02 -0.91900513931E+02  0.10834611950E+03  0.00000000000E+00 0. -1.
          2    1    1    2  501    0 -0.33615349854E+02  0.97827587161E+02 -0.44345051475E+04  0.44357114572E+04  0.00000000000E+00 0.  1.
<scales pt_clust_3="39.86941" pt_clust_4="14000.00000" pt_clust_5="53.36768" pt_clust_6="104.18507"></scales>
<clustering>
<clus scale="   39.869">  1  3  2 -1</clus>
<clus scale="   53.368">  1  5  2 -1</clus>
<clus scale="  104.185">  2  6  1 -1</clus>
<clus scale="   39.869">  1  3  2 -1</clus>
</clustering>
</event>
<event>
 6    0  0.6851428E+002  0.9025521E+02  0.7546771E-02  0.1302235E+00
         21   -1    0    0  501  502  0.00000000000E+00  0.00000000000E+00  0.15050225927E+03  0.15050225927E+03  0.00000000000E+00 0.  1.
          2   -1    0    0  505    0 -0.00000000000E+00 -0.00000000000E+00 -0.28199305354E+03  0.28199305354E+03  0.00000000000E+00 0.  1.
         21    1    1    2  503  504  0.21198328005E+02 -0.39151099512E+02  0.37960075199E+01  0.44683188967E+02  0.00000000000E+00 0.  1.
         21    1    1    2  504  502 -0.64024354503E+02 -0.19610363185E+02  0.68970757545E+02  0.96128298176E+02  0.00000000000E+00 0.  1.
         21    1    1    2  505  503  0.65952671480E+02 -0.15736808955E+02  0.53667931800E+01  0.68016207631E+02  0.00000000000E+00 0.  1.
          2    1    1    2  501    0 -0.23126644982E+02  0.74498271651E+02 -0.20962435252E+03  0.22366761803E+03  0.00000000000E+00 0.  1.
<scales pt_clust_3="36.32211" pt_clust_4="66.96032" pt_clust_5="36.32211" pt_clust_6="78.33764"></scales>
<clustering>
<clus scale="   36.322">  3  5 -1 -1</clus>
<clus scale="   66.960">  1  4  2 -1</clus>
<clus scale="   78.338">  2  6  1 -1</clus>
<clus scale="   66.960">  1  3  2 -1</clus>
</clustering>
</event>
<event>
 6    0  0.6851428E+002  0.1582768E+03  0.7546771E-02  0.1190656E+00
         21   -1    0    0  505  502  0.00000000000E+00  0.00000000000E+00  0.89578658118E+02  0.89578658118E+02  0.00000000000E+00 0. -1.
          1   -1    0    0  504    0 -0.00000000000E+00 -0.00000000000E+00 -0.11082602773E+04  0.11082602773E+04  0.00000000000E+00 0. -1.
         21    1    1    2  503  501  0.28877619037E+02 -0.37972464147E+02 -0.25213119725E+03  0.25660468729E+03  0.00000000000E+00 0. -1.
         21    1    1    2  504  502  0.26298275922E+02 -0.95017499754E+02 -0.27228911181E+03  0.28958812991E+03  0.00000000000E+00 0. -1.
         21    1    1    2  505  503 -0.87632991653E+02  0.15911944132E+03 -0.28324622861E+02  0.18384999889E+03  0.00000000000E+00 0. -1.
          1    1    1    2  501    0  0.32457096694E+02 -0.26129477418E+02 -0.46593668727E+03  0.46779611933E+03  0.00000000000E+00 0. -1.
<scales pt_clust_3="33.22735" pt_clust_4="14000.00000" pt_clust_5="158.27678" pt_clust_6="95.57741"></scales>
<clustering>
<clus scale="   33.227">  3  6 -1 -1</clus>
<clus scale="   95.577">  2  3  1 -1</clus>
<clus scale="  158.277">  1  5  2 -1</clus>
<clus scale="  158.277">  1  3  2 -1</clus>
</clustering>
</event>
<event>
 6    0  0.6851428E+002  0.1799764E+03  0.7546771E-02  0.1167826E+00
          1   -1    0    0  503    0 -0.00000000000E+00  0.00000000000E+00  0.42851643903E+03  0.42851643903E+03  0.00000000000E+00 0.  1.
         21   -1    0    0  505  502  0.00000000000E+00 -0.00000000000E+00 -0.50146515717E+03  0.50146515717E+03  0.00000000000E+00 0.  1.
         21    1    1    2  503  502  0.11517204437E+03 -0.12015250037E+03 -0.29217308620E+03  0.33625337983E+03  0.00000000000E+00 0.  1.
         21    1    1    2  504  501  0.93623688363E+02 -0.35809921023E+02 -0.15272305253E+02  0.10139521080E+03  0.00000000000E+00 0.  1.
         21    1    1    2  505  504 -0.19092583170E+03  0.18205277797E+03  0.83045718918E+01  0.26394100305E+03  0.00000000000E+00 0.  1.
          1    1    1    2  501    0 -0.17869901033E+02 -0.26090356583E+02  0.22619210142E+03  0.22839200252E+03  0.00000000000E+00 0.  1.
<scales pt_clust_3="179.97638" pt_clust_4="98.88054" pt_clust_5="14000.00000" pt_clust_6="31.62341"></scales>
<clustering>
<clus scale="   31.623">  1  6  2 -1</clus>
<clus scale="   98.881">  1  4  2 -1</clus>
<clus scale="  179.976">  2  3  1 -1</clus>
<clus scale="  179.976">  2  3  1 -1</clus>
</clustering>
</event>
<event>
 6    0  0.6851428E+002  0.1014695E+03  0.7546771E-02  0.1277236E+00
         -2   -1    0    0    0  501 -0.00000000000E+00  0.00000000000E+00  0.48157646835E+03  0.48157646835E+03  0.00000000000E+00 0. -1.
         21   -1    0    0  503  502  0.00000000000E+00 -0.00000000000E+00 -0.97302732044E+03  0.97302732044E+03  0.00000000000E+00 0.  1.
         21    1    1    2  503  501 -0.66528093732E+02 -0.53505593339E+02 -0.81558398982E+02  0.11807035284E+03  0.00000000000E+00 0.  1.
         21    1    1    2  504  505 -0.11128226545E+02  0.46962157304E+02 -0.26090661734E+03  0.26533289395E+03  0.00000000000E+00 0.  1.
         21    1    1    2  505  502 -0.58825008959E+01  0.43890580339E+02 -0.60473569824E+03  0.60635488914E+03  0.00000000000E+00 0.  1.
         -2    1    1    2    0  504  0.83538821172E+02 -0.37347144304E+02  0.45574986247E+03  0.46484565285E+03  0.00000000000E+00 0. -1.
<scales pt_clust_3="85.37468" pt_clust_4="42.40073" pt_clust_5="42.40073" pt_clust_6="91.30534"></scales>
<clustering>
<clus scale="   42.401">  4  5 -1 -1</clus>
<clus scale="   85.375">  2  3  1 -1</clus>
<clus scale="   91.305">  1  6  2 -1</clus>
<clus scale="   85.375">  2  3  1 -1</clus>
</clustering>
</event>
<event>
 6    0  0.6851428E+002  0.1097306E+03  0.7546771E-02  0.1261070E+00
          2   -1    0    0  505    0 -0.00000000000E+00  0.00000000000E+00  0.11134251474E+04  0.11134251474E+04  0.00000000000E+00 0.  1.
         21   -1    0    0  501  502  0.00000000000E+00 -0.00000000000E+00 -0.23574340380E+02  0.23574340380E+02  0.00000000000E+00 0.  1.
         21    1    1    2  503  504 -0.50582266219E+02 -0.62741322806E+02  0.13604213306E+03  0.15812179234E+03  0.00000000000E+00 0.  1.
         21    1    1    2  504  502  0.62006790827E+01 -0.52251506869E+02  0.10112774337E+03  0.11399775818E+03  0.00000000000E+00 0.  1.
         21    1    1    2  505  503  0.35706965063E+02  0.61475760435E+02  0.25438193685E+03  0.26412956341E+03  0.00000000000E+00 0.  1.
          2    1    1    2  501    0  0.86746220734E+01  0.53517069240E+02  0.59829899374E+03  0.60075037385E+03  0.00000000000E+00 0.  1.
<scales pt_clust_3="41.25198" pt_clust_4="41.25198" pt_clust_5="97.13074" pt_clust_6="54.21555"></scales>
<clustering>
<clus scale="   41.252">  3  4 -1 -1</clus>
<clus scale="   54.216">  1  6  2 -1</clus>
<clus scale="   97.131">  1  5  2 -1</clus>
<clus scale="  109.731">  2  3  1 -1</clus>
</clustering>
</event>
<event>
 6    0  0.6851428E+002  0.2285836E+03  0.7546771E-02  0.1127641E+00
         21   -1    0    0  501  502  0.00000000000E+00  0.00000000000E+00  0.10090560468E+04  0.10090560468E+04  0.00000000000E+00 0.  1.
          1   -1    0    0  505    0 -0.00000000000E+00 -0.00000000000E+00 -0.51486729805E+03  0.51486729805E+03  0.00000000000E+00 0.  1.
         21    1    1    2  503  502 -0.37800163288E+02  0.14294240436E+03  0.63003125233E+03  0.64714817640E+03  0.00000000000E+00 0.  1.
         21    1    1    2  504  503  0.66447979733E+02 -0.18222804335E+03  0.15842128097E+03  0.25043900666E+03  0.00000000000E+00 0.  1.
         21    1    1    2  505  504  0.30313817082E+02 -0.16399767818E+03  0.88607939113E+02  0.18885320444E+03  0.00000000000E+00 0.  1.
          1    1    1    2  501    0 -0.58961633527E+02  0.20328331718E+03 -0.38287172361E+03  0.43748295740E+03  0.00000000000E+00 0.  1.
<scales pt_clust_3="147.85595" pt_clust_4="48.35248" pt_clust_5="48.35248" pt_clust_6="222.55643"></scales>
<clustering>
<clus scale="   48.352">  4  5 -1 -1</clus>
<clus scale="  147.856">  1  3  2 -1</clus>
<clus scale="  222.556">  2  6  1 -1</clus>
<clus scale="  147.856">  1  3  2 -1</clus>
</clustering>
</event>
<event>
 6    0  0.6851428E+002  0.8239934E+02  0.7546771E-02  0.1322377E+00
          1   -1    0    0  503    0 -0.00000000000E+00  0.00000000000E+00  0.48321663889E+03  0.48321663889E+03  0.00000000000E+00 0. -1.
         21   -1    0    0  505  502  0.00000000000E+00 -0.00000000000E+00 -0.51078441763E+03  0.51078441763E+03  0.00000000000E+00 0. -1.
         21    1    1    2  503  502  0.76211050136E+02  0.31736306074E+02 -0.14898453076E+02  0.83888504517E+02  0.00000000000E+00 0. -1.
         21    1    1    2  504  501 -0.73400234130E+02  0.62037403853E+02  0.23396668648E+02  0.98912274016E+02  0.00000000000E+00 0. -1.
         21    1    1    2  505  504  0.41384090371E+02 -0.22708276755E+02 -0.41777077139E+03  0.42042921663E+03  0.00000000000E+00 0. -1.
          1    1    1    2  501    0 -0.44194906376E+02 -0.71065433172E+02  0.38170477708E+03  0.39077106135E+03  0.00000000000E+00 0. -1.
<scales pt_clust_3="82.39934" pt_clust_4="77.14867" pt_clust_5="47.20497" pt_clust_6="14000.00000"></scales>
<clustering>
<clus scale="   47.205">  2  5  1 -1</clus>
<clus scale="   77.149">  2  4  1 -1</clus>
<clus scale="   82.399">  2  3  1 -1</clus>
<clus scale="   47.205">  2  3  1 -1</clus>
</clustering>
</event>
<event>
 6    0  0.6851428E+002  0.2067852E+03  0.7546771E-02  0.1144137E+00
         21   -1    0    0  505  502  0.00000000000E+00  0.00000000000E+00  0.15978240423E+03  0.15978240423E+03  0.00000000000E+00 0.  1.
          2   -1    0    0  504    0 -0.00000000000E+00 -0.00000000000E+00 -0.13058104457E+04  0.13058104457E+04  0.00000000000E+00 0. -1.
         21    1    1    2  503  502 -0.15902907465E+03 -0.93234477644E+02 -0.17280850776E+03  0.25267705626E+03  0.00000000000E+00 0. -1.
         21    1    1    2  504  503 -0.11822430717E+02 -0.36641221239E+02 -0.29096727985E+03  0.29350350408E+03  0.00000000000E+00 0.  1.
         21    1    1    2  505  501 -0.45647631668E+02  0.44203039478E+02  0.91493153738E+02  0.11139395027E+03  0.00000000000E+00 0.  1.
          2    1    1    2  501    0  0.21649913704E+03  0.85672659405E+02 -0.77374540755E+03  0.80801833928E+03  0.00000000000E+00 0. -1.
<scales pt_clust_3="206.78517" pt_clust_4="38.50129" pt_clust_5="63.37628" pt_clust_6="14000.00000"></scales>
<clustering>
<clus scale="   38.501">  2  4  1 -1</clus>
<clus scale="   63.376">  1  5  2 -1</clus>
<clus scale="  206.785">  1  3  2 -1</clus>
<clus scale="   63.376">  1  3  2 -1</clus>
</clustering>
</event>
<event>
 6    0  0.6851428E+002  0.1093544E+03  0.7546771E-02  0.1261770E+00
          2   -1    0    0  505    0 -0.00000000000E+00  0.00000000000E+00  0.12703855554E+03  0.12703855554E+03  0.00000000000E+00 0.  1.
         21   -1    0    0  501  502  0.00000000000E+00 -0.00000000000E+00 -0.14059946085E+04  0.14059946085E+04  0.00000000000E+00 0. -1.
         21    1    1    2  503  502 -0.87145908092E+02  0.78666915192E+02 -0.12520785341E+04  0.12575704944E+04  0.00000000000E+00 0. -1.
         21    1    1    2  504  503  0.67910238305E+02  0.14322331148E+02 -0.74609412187E+02  0.10189943093E+03  0.00000000000E+00 0.  1.
         21    1    1    2  505  504  0.55745830203E+02 -0.23432456471E+02  0.69423506588E+02  0.92066828273E+02  0.00000000000E+00 0.  1.
          2    1    1    2  501    0 -0.36510160415E+02 -0.69556789869E+02 -0.21691613284E+02  0.81496410456E+02  0.00000000000E+00 0.  1.
<scales pt_clust_3="14000.00000" pt_clust_4="84.66674" pt_clust_5="60.47047" pt_clust_6="109.35440"></scales>
<clustering>
<clus scale="   60.470">  1  5  2 -1</clus>
<clus scale="   84.667">  1  4  2 -1</clus>
<clus scale="  109.354">  1  6  2 -1</clus>
<clus scale="  109.354">  2  3  1 -1</clus>
</clustering>
</event>
<event>
 6    0  0.6851428E+002  0.9793975E+02  0.7546771E-02  0.1284689E+00
          2   -1    0    0  504    0 -0.00000000000E+00  0.00000000000E+00  0.32584008568E+04  0.32584008568E+04  0.00000000000E+00 0. -1.
         21   -1    0    0  503  502  0.00000000000E+00 -0.00000000000E+00 -0.15748083898E+04  0.15748083898E+04  0.00000000000E+00 0. -1.
         21    1    1    2  503  505 -0.34539857965E+02 -0.72370158532E+01 -0.15004363695E+04  0.15008513167E+04  0.00000000000E+00 0. -1.
         21    1    1    2  504  502 -0.41301224745E+02 -0.56793935071E+02  0.11098444781E+04  0.11120638956E+04  0.00000000000E+00 0.  1.
         21    1    1    2  505  501  0.56564794738E+02  0.10353063190E+03 -0.25045175056E+02  0.12060443001E+03  0.00000000000E+00 0. -1.
          2    1    1    2  501    0  0.19276287973E+02 -0.39499680977E+02  0.20992295334E+04  0.20996896042E+04  0.00000000000E+00 0. -1.
<scales pt_clust_3="35.28989" pt_clust_4="97.93975" pt_clust_5="14000.00000" pt_clust_6="43.92556"></scales>
<clustering>
<clus scale="   35.290">  2  3  1 -1</clus>
<clus scale="   43.926">  1  6  2 -1</clus>
<clus scale="   97.940">  1  4  2 -1</clus>
<clus scale="   35.290">  2  3  1 -1</clus>
</clustering>
</event>
<event>
 6    0  0.6851428E+002  0.6631985E+02  0.7546771E-02  0.1373074E+00
          3   -1    0    0  503    0 -0.00000000000E+00  0.00000000000E+00  0.47380598091E+03  0.47380598091E+03  0.00000000000E+00 0.  1.
         21   -1    0    0  505  502  0.00000000000E+00 -0.00000000000E+00 -0.15614707400E+03  0.15614707400E+03  0.00000000000E+00 0. -1.
         21    1    1    2  503  502  0.30725696852E+02  0.49127918024E+02  0.13710124569E+03  0.14884344912E+03  0.00000000000E+00 0. -1.
         21    1    1    2  504  501 -0.74708078120E+02 -0.40850724235E+02  0.64557408908E+02  0.10685381440E+03  0.00000000000E+00 0.  1.
         21    1    1    2  505  504  0.54280928435E+02  0.34909777702E+02 -0.11885192604E+03  0.13524382461E+03  0.00000000000E+00 0. -1.
          3    1    1    2  501    0 -0.10298547166E+02 -0.43186971491E+02  0.23485217836E+03  0.23901196677E+03  0.00000000000E+00 0.  1.
<scales pt_clust_3="33.65325" pt_clust_4="14000.00000" pt_clust_5="66.31985" pt_clust_6="44.39791"></scales>
<clustering>
<clus scale="   44.398">  1  6  2 -1</clus>
<clus scale="   33.653">  1  3  2 -1</clus>
<clus scale="   66.320">  2  5  1 -1</clus>
<clus scale="   66.320">  2  3  1 -1</clus>
</clustering>
</event>
<event>
 6    0  0.6851428E+002  0.2935383E+03  0.7546771E-02  0.1088516E+00
          1   -1    0    0  503    0 -0.00000000000E+00  0.00000000000E+00  0.43116155058E+03  0.43116155058E+03  0.00000000000E+00 0. -1.
         21   -1    0    0  504  502  0.00000000000E+00 -0.00000000000E+00 -0.14727134555E+04  0.14727134555E+04  0.00000000000E+00 0.  1.
         21    1    1    2  503  505 -0.11612031737E+03 -0.24655314823E+03 -0.73809698677E+03  0.78680337117E+03  0.00000000000E+00 0.  1.
         21    1    1    2  504  501 -0.30570040558E+01  0.31631890428E+02 -0.21369444067E+02  0.38295886275E+02  0.00000000000E+00 0.  1.
         21    1    1    2  505  502 -0.57343870244E+02 -0.21963133234E+02 -0.62394256884E+03  0.62695695856E+03  0.00000000000E+00 0.  1.
          1    1    1    2  501    0  0.17652119167E+03  0.23688439104E+03  0.34185709476E+03  0.45181879007E+03  0.00000000000E+00 0. -1.
<scales pt_clust_3="14000.00000" pt_clust_4="31.77927" pt_clust_5="59.24643" pt_clust_6="293.53826"></scales>
<clustering>
<clus scale="   31.779">  2  4  1 -1</clus>
<clus scale="   59.246">  2  5  1 -1</clus>
<clus scale="  293.538">  1  6  2 -1</clus>
<clus scale="   31.779">  2  3  1 -1</clus>
</clustering>
</event>
<event>
 6    0  0.6851428E+002  0.6087907E+03  0.7546771E-02  0.9887334E-01
          3   -1    0    0  502    0 -0.00000000000E+00  0.00000000000E+00  0.13499164209E+04  0.13499164209E+04  0.00000000000E+00 0. -1.
         21   -1    0    0  505  502  0.00000000000E+00 -0.00000000000E+00 -0.11565792238E+04  0.11565792238E+04  0.00000000000E+00 0. -1.
         21    1    1    2  503  501 -0.82600183423E+01  0.50387285489E+02 -0.11270562866E+02  0.52288928362E+02  0.00000000000E+00 0. -1.
         21    1    1    2  504  503  0.18103829245E+03  0.56143299078E+03  0.11072352095E+03  0.60020127004E+03  0.00000000000E+00 0. -1.
         21    1    1    2  505  504 -0.14093713019E+03 -0.57247881965E+03 -0.78050478531E+03  0.97815284772E+03  0.00000000000E+00 0. -1.
          3    1    1    2  501    0 -0.31841143915E+02 -0.39341456614E+02  0.87438902425E+03  0.87585259855E+03  0.00000000000E+00 0. -1.
<scales pt_clust_3="31.79077" pt_clust_4="31.79077" pt_clust_5="599.12426" pt_clust_6="50.61234"></scales>
<clustering>
<clus scale="   31.791">  3  4 -1 -1</clus>
<clus scale="   50.612">  1  6  2 -1</clus>
<clus scale="  599.124">  2  5  1 -1</clus>
<clus scale="  599.124">  2  3  1 -1</clus>
</clustering>
</event>
<event>
 6    0  0.6851428E+002  0.6397134E+02  0.7546771E-02  0.1381883E+00
         21   -1    0    0  504  502  0.00000000000E+00  0.00000000000E+00  0.10980996931E+03  0.10980996931E+03  0.00000000000E+00 0. -1.
          1   -1    0    0  505    0 -0.00000000000E+00 -0.00000000000E+00 -0.34989157660E+04  0.34989157660E+04  0.00000000000E+00 0.  1.
         21    1    1    2  503  501 -0.34889587756E+02  0.33711638014E+02  0.41651506822E+02  0.63942207437E+02  0.00000000000E+00 0. -1.
         21    1    1    2  504  503 -0.29692690423E+02 -0.16897298534E+02  0.37806661682E+02  0.50956042133E+02  0.00000000000E+00 0. -1.
         21    1    1    2  505  502  0.98723376609E+02 -0.69471897303E+02 -0.28332438234E+03  0.30796973104E+03  0.00000000000E+00 0.  1.
          1    1    1    2  501    0 -0.34141098430E+02  0.52657557823E+02 -0.31852395829E+04  0.31858577547E+04  0.00000000000E+00 0.  1.
<scales pt_clust_3="62.18008" pt_clust_4="34.16394" pt_clust_5="63.97134" pt_clust_6="14000.00000"></scales>
<clustering>
<clus scale="   34.164">  1  4  2 -1</clus>
<clus scale="   62.180">  1  3  2 -1</clus>
<clus scale="   63.971">  1  5  2 -1</clus>
<clus scale="   34.164">  1  3  2 -1</clus>
</clustering>
</event>
<event>
 6    0  0.6851428E+002  0.1939164E+03  0.7546771E-02  0.1154976E+00
         21   -1    0    0  505  502  0.00000000000E+00  0.00000000000E+00  0.42869376095E+03  0.42869376095E+03  0.00000000000E+00 0. -1.
          2   -1    0    0  504    0 -0.00000000000E+00 -0.00000000000E+00 -0.45464027253E+03  0.45464027253E+03  0.00000000000E+00 0.  1.
         21    1    1    2  503  502 -0.36349712399E+02  0.28824190073E+02  0.95320323874E+02  0.10600990363E+03  0.00000000000E+00 0. -1.
         21    1    1    2  504  503 -0.22255316422E+03 -0.32918396087E+02  0.16990859482E+02  0.22561520563E+03  0.00000000000E+00 0. -1.
         21    1    1    2  505  501  0.17195489425E+03  0.90436773536E+02  0.14543063490E+03  0.24268779374E+03  0.00000000000E+00 0. -1.
          2    1    1    2  501    0  0.86947982369E+02 -0.86342567522E+02 -0.28368832983E+03  0.30902113048E+03  0.00000000000E+00 0.  1.
<scales pt_clust_3="46.39111" pt_clust_4="193.91641" pt_clust_5="14000.00000" pt_clust_6="120.75562"></scales>
<clustering>
<clus scale="   46.391">  1  3  2 -1</clus>
<clus scale="  120.756">  2  6  1 -1</clus>
<clus scale="  193.916">  2  4  1 -1</clus>
<clus scale="   46.391">  1  3  2 -1</clus>
</clustering>
</event>
<event>
 6    0  0.6851428E+002  0.1466134E+03  0.7546771E-02  0.1204697E+00
         21   -1    0    0  503  502  0.00000000000E+00  0.00000000000E+00  0.24394447416E+02  0.24394447416E+02  0.00000000000E+00 0. -1.
          2   -1    0    0  505    0 -0.00000000000E+00 -0.00000000000E+00 -0.88088825041E+03  0.88088825041E+03  0.00000000000E+00 0. -1.
         21    1    1    2  503  501 -0.41552754039E+02 -0.21009251342E+02 -0.10941832061E+03  0.11891336718E+03  0.00000000000E+00 0.  1.
         21    1    1    2  504  502  0.30476042333E+02  0.42430845993E+02 -0.80468612979E+02  0.95939374205E+02  0.00000000000E+00 0. -1.
         21    1    1    2  505  504  0.45355796093E+02  0.69292791936E+02 -0.30339334305E+03  0.31449349733E+03  0.00000000000E+00 0. -1.
          2    1    1    2  501    0 -0.34279084387E+02 -0.90714386588E+02 -0.36321352636E+03  0.37593645911E+03  0.00000000000E+00 0. -1.
<scales pt_clust_3="39.58078" pt_clust_4="42.56750" pt_clust_5="145.27608" pt_clust_6="39.58078"></scales>
<clustering>
<clus scale="   39.581">  3  6 -1 -1</clus>
<clus scale="   42.567">  4  5 -1 -1</clus>
<clus scale="  145.276">  1  4  2 -1</clus>
<clus scale="  145.276">  1  3  2 -1</clus>
</clustering>
</event>
<event>
 6    0  0.6851428E+002  0.9794517E+02  0.7546771E-02  0.1284677E+00
         21   -1    0    0  504  502  0.00000000000E+00  0.00000000000E+00  0.19711008824E+03  0.19711008824E+03  0.00000000000E+00 0. -1.
          2   -1    0    0  505    0 -0.00000000000E+00 -0.00000000000E+00 -0.24797083708E+04  0.24797083708E+04  0.00000000000E+00 0. -1.
         21    1    1    2  503  502 -0.14791224826E+02 -0.75143854168E+02  0.11750763562E+03  0.14026198195E+03  0.00000000000E+00 0. -1.
         21    1    1    2  504  501 -0.29169750669E+02 -0.26498532186E+02 -0.10927255757E+02  0.40895616886E+02  0.00000000000E+00 0. -1.
         21    1    1    2  505  503  0.10882413713E+03  0.58114347887E+02 -0.19744300560E+02  0.12493921585E+03  0.00000000000E+00 0. -1.
          2    1    1    2  501    0 -0.64863161634E+02  0.43528038467E+02 -0.23694343618E+04  0.23707216443E+04  0.00000000000E+00 0. -1.
<scales pt_clust_3="14000.00000" pt_clust_4="39.40871" pt_clust_5="97.94517" pt_clust_6="78.14832"></scales>
<clustering>
<clus scale="   39.409">  1  4  2 -1</clus>
<clus scale="   78.148">  2  6  1 -1</clus>
<clus scale="   97.945">  2  5  1 -1</clus>
<clus scale="   39.409">  1  3  2 -1</clus>
</clustering>
</event>
<event>
 6    0  0.6851428E+002  0.2401828E+03  0.7546771E-02  0.1119671E+00
          2   -1    0    0  504    0 -0.00000000000E+00  0.00000000000E+00  0.27947990711E+03  0.27947990711E+03  0.00000000000E+00 0. -1.
         21   -1    0    0  505  502  0.00000000000E+00 -0.00000000000E+00 -0.34307156266E+04  0.34307156266E+04  0.00000000000E+00 0. -1.
         21    1    1    2  503  501 -0.13091553784E+03 -0.16759682827E+03 -0.54828814152E+03  0.58808797048E+03  0.00000000000E+00 0. -1.
         21    1    1    2  504  502  0.31822379461E+02  0.24326982102E+03 -0.20127859453E+03  0.31734199576E+03  0.00000000000E+00 0. -1.
         21    1    1    2  505  503 -0.15383548560E+03 -0.34320303823E+01 -0.25140263074E+04  0.25187309125E+04  0.00000000000E+00 0. -1.
          2    1    1    2  501    0  0.25292864398E+03 -0.72240962370E+02  0.11235732394E+03  0.28603465495E+03  0.00000000000E+00 0. -1.
<scales pt_clust_3="240.18285" pt_clust_4="242.58394" pt_clust_5="153.87376" pt_clust_6="14000.00000"></scales>
<clustering>
<clus scale="  153.874">  2  5  1 -1</clus>
<clus scale="  242.584">  2  4  1 -1</clus>
<clus scale="  240.183">  2  3  1 -1</clus>
<clus scale="  153.874">  2  3  1 -1</clus>
</clustering>
</event>
<event>
 6    0  0.6851428E+002  0.1421292E+03  0.7546771E-02  0.1210492E+00
         21   -1    0    0  505  502  0.00000000000E+00  0.00000000000E+00  0.10389595365E+04  0.10389595365E+04  0.00000000000E+00 0. -1.
          1   -1    0    0  503    0 -0.00000000000E+00 -0.00000000000E+00 -0.43357238836E+03  0.43357238836E+03  0.00000000000E+00 0. -1.
         21    1    1    2  503  504 -0.24058127321E+02  0.10045963644E+03 -0.99026463798E+01  0.10377376571E+03  0.00000000000E+00 0. -1.
         21    1    1    2  504  502 -0.48679559393E+02  0.69699578072E+01  0.88794510473E+02  0.10150243792E+03  0.00000000000E+00 0. -1.
         21    1    1    2  505  501  0.71385781585E+02 -0.15484867753E+03  0.88720416876E+03  0.90344080039E+03  0.00000000000E+00 0. -1.
          1    1    1    2  501    0  0.13519051292E+01  0.47419083281E+02 -0.36070888471E+03  0.36381492083E+03  0.00000000000E+00 0. -1.
<scales pt_clust_3="142.12918" pt_clust_4="49.83289" pt_clust_5="14000.00000" pt_clust_6="47.43835"></scales>
<clustering>
<clus scale="   47.438">  2  6  1 -1</clus>
<clus scale="   49.833">  1  4  2 -1</clus>
<clus scale="  142.129">  2  3  1 -1</clus>
<clus scale="   49.833">  1  3  2 -1</clus>
</clustering>
</event>
<event>
 6    0  0.6851428E+002  0.1146367E+03  0.7546771E-02  0.1252217E+00
          2   -1    0    0  503    0 -0.00000000000E+00  0.00000000000E+00  0.92897390382E+03  0.92897390382E+03  0.00000000000E+00 0.  1.
         21   -1    0    0  504  502  0.00000000000E+00 -0.00000000000E+00 -0.99723586740E+03  0.99723586740E+03  0.00000000000E+00 0. -1.
         21    1    1    2  503  505 -0.11897905436E+02  0.29098509441E+02 -0.22526455336E+00  0.31437782199E+02  0.00000000000E+00 0.  1.
         21    1    1    2  504  501  0.83809136484E+01 -0.59779999908E+02 -0.88981068103E+03  0.89185589429E+03  0.00000000000E+00 0. -1.
         21    1    1    2  505  502 -0.50058544137E+02 -0.57783098621E+02 -0.70902491174E+02  0.10426844001E+03  0.00000000000E+00 0. -1.
          2    1    1    2  501    0  0.53575535925E+02  0.88464589089E+02  0.89267647318E+03  0.89864765472E+03  0.00000000000E+00 0.  1.
<scales pt_clust_3="31.43698" pt_clust_4="60.33051" pt_clust_5="114.63675" pt_clust_6="14000.00000"></scales>
<clustering>
<clus scale="   31.437">  1  3  2 -1</clus>
<clus scale="   60.331">  2  4  1 -1</clus>
<clus scale="  114.637">  2  5  1 -1</clus>
<clus scale="   60.331">  2  3  1 -1</clus>
</clustering>
</event>
<event>
 6    0  0.6851428E+002  0.1417822E+03  0.7546771E-02  0.1210951E+00
         21   -1    0    0  504  502  0.00000000000E+00  0.00000000000E+00  0.15589797613E+03  0.15589797613E+03  0.00000000000E+00 0.  1.
          1   -1    0    0  505    0 -0.00000000000E+00 -0.00000000000E+00 -0.24037340473E+04  0.24037340473E+04  0.00000000000E+00 0.  1.
         21    1    1    2  503  502 -0.12940691127E+03 -0.21070539964E+01  0.11764019279E+03  0.17489940915E+03  0.00000000000E+00 0.  1.
         21    1    1    2  504  501  0.57940638436E+02 -0.19343835022E+02 -0.58555672687E+03  0.58873422011E+03  0.00000000000E+00 0.  1.
         21    1    1    2  505  503 -0.63893670622E+02 -0.16348202099E+02 -0.21771707324E+03  0.22748711796E+03  0.00000000000E+00 0. -1.
          1    1    1    2  501    0  0.13535994345E+03  0.37799091118E+02 -0.15622024639E+04  0.15685112763E+04  0.00000000000E+00 0.  1.
<scales pt_clust_3="130.26627" pt_clust_4="36.90108" pt_clust_5="65.95199" pt_clust_6="36.90108"></scales>
<clustering>
<clus scale="   36.901">  4  6 -1 -1</clus>
<clus scale="   65.952">  2  5  1 -1</clus>
<clus scale="  130.266">  1  3  2 -1</clus>
<clus scale="  130.266">  1  3  2 -1</clus>
</clustering>
</event>
<event>
 6    0  0.6851428E+002  0.1320752E+03  0.7546771E-02  0.1224409E+00
         21   -1    0    0  505  502  0.00000000000E+00  0.00000000000E+00  0.50262380449E+03  0.50262380449E+03  0.00000000000E+00 0. -1.
          2   -1    0    0  504    0 -0.00000000000E+00 -0.00000000000E+00 -0.15877457433E+04  0.15877457433E+04  0.00000000000E+00 0.  1.
         21    1    1    2  503  501 -0.13961671434E+03  0.35564530567E+02 -0.96241293043E+02  0.17326294827E+03  0.00000000000E+00 0. -1.
         21    1    1    2  504  502 -0.10607874033E+03 -0.43187120825E+01  0.23999510213E+03  0.26242903701E+03  0.00000000000E+00 0. -1.
         21    1    1    2  505  503  0.21480047839E+03  0.31620970459E+02  0.15643156811E+03  0.26760038638E+03  0.00000000000E+00 0. -1.
          2    1    1    2  501    0  0.30894976271E+02 -0.62866788943E+02 -0.13853073160E+04  0.13870771761E+04  0.00000000000E+00 0.  1.
<scales pt_clust_3="14000.00000" pt_clust_4="104.65174" pt_clust_5="132.07523" pt_clust_6="70.04807"></scales>
<clustering>
<clus scale="   70.048">  2  6  1 -1</clus>
<clus scale="  104.652">  1  4  2 -1</clus>
<clus scale="  132.075">  1  5  2 -1</clus>
<clus scale="  104.652">  1  3  2 -1</clus>
</clustering>
</event>
<event>
 6    0  0.6851428E+002  0.1473908E+03  0.7546771E-02  0.1203716E+00
         21   -1    0    0  505  502  0.00000000000E+00  0.00000000000E+00  0.14931814727E+03  0.14931814727E+03  0.00000000000E+00 0.  1.
          2   -1    0    0  504    0 -0.00000000000E+00 -0.00000000000E+00 -0.36025891799E+04  0.36025891799E+04  0.00000000000E+00 0.  1.
         21    1    1    2  503  501  0.36116608426E+02 -0.36653218048E+02 -0.34314905760E+03  0.34698579730E+03  0.00000000000E+00 0. -1.
         21    1    1    2  504  502  0.36496843735E+02 -0.26251942588E+02 -0.30658551347E+04  0.30661847450E+04  0.00000000000E+00 0.  1.
         21    1    1    2  505  503 -0.11230446766E+03  0.91757665610E+02  0.10666704924E+03  0.18002672593E+03  0.00000000000E+00 0.  1.
          2    1    1    2  501    0  0.39691015496E+02 -0.28852504973E+02 -0.15093388961E+03  0.15871005887E+03  0.00000000000E+00 0.  1.
<scales pt_clust_3="38.72438" pt_clust_4="44.95758" pt_clust_5="141.95595" pt_clust_6="38.72438"></scales>
<clustering>
<clus scale="   38.724">  3  6 -1 -1</clus>
<clus scale="   44.958">  2  4  1 -1</clus>
<clus scale="  141.956">  1  5  2 -1</clus>
<clus scale="  141.956">  1  3  2 -1</clus>
</clustering>
</event>
<event>
 6    0  0.6851428E+002  0.1393320E+03  0.7546771E-02  0.1214231E+00
         21   -1    0    0  505  502  0.00000000000E+00  0.00000000000E+00  0.22181624819E+02  0.22181624819E+02  0.00000000000E+00 0.  1.
          2   -1    0    0  503    0 -0.00000000000E+00 -0.00000000000E+00 -0.24444931469E+04  0.24444931469E+04  0.00000000000E+00 0.  1.
         21    1    1    2  503  502 -0.41662440200E+02  0.25008222933E+02 -0.85244302505E+02  0.98121155961E+02  0.00000000000E+00 0. -1.
         21    1    1    2  504  501 -0.38281033234E+02 -0.15836384232E+03 -0.70095676224E+03  0.71964222124E+03  0.00000000000E+00 0.  1.
         21    1    1    2  505  504  0.42206887317E+02  0.67613059482E+01 -0.12638661973E+03  0.13341931735E+03  0.00000000000E+00 0. -1.
          2    1    1    2  501    0  0.37736586117E+02  0.12659431344E+03 -0.15097238376E+04  0.15154920771E+04  0.00000000000E+00 0.  1.
<scales pt_clust_3="38.49810" pt_clust_4="139.33203" pt_clust_5="42.74502" pt_clust_6="14000.00000"></scales>
<clustering>
<clus scale="   42.745">  1  5  2 -1</clus>
<clus scale="   38.498">  1  3  2 -1</clus>
<clus scale="  139.332">  1  4  2 -1</clus>
<clus scale="   42.745">  1  3  2 -1</clus>
</clustering>
</event>
<event>
 6    0  0.6851428E+002  0.8247360E+02  0.7546771E-02  0.1322175E+00
         21   -1    0    0  504  502  0.00000000000E+00  0.00000000000E+00  0.12122718372E+02  0.12122718372E+02  0.00000000000E+00 0. -1.
          2   -1    0    0  503    0 -0.00000000000E+00 -0.00000000000E+00 -0.24103394063E+04  0.24103394063E+04  0.00000000000E+00 0.  1.
         21    1    1    2  503  505  0.67285996811E+02  0.23209206672E+02 -0.52386406047E+03  0.52867724227E+03  0.00000000000E+00 0. -1.
         21    1    1    2  504  501 -0.51648126008E+02 -0.94653398599E+00 -0.27272890876E+03  0.27757788550E+03  0.00000000000E+00 0.  1.
         21    1    1    2  505  502  0.61337809522E+02  0.23817904565E+02 -0.17822162423E+03  0.18998043794E+03  0.00000000000E+00 0. -1.
          2    1    1    2  501    0 -0.76975680324E+02 -0.46080577251E+02 -0.14234020944E+04  0.14262265589E+04  0.00000000000E+00 0.  1.
<scales pt_clust_3="14000.00000" pt_clust_4="51.65680" pt_clust_5="37.97239" pt_clust_6="82.47360"></scales>
<clustering>
<clus scale="   51.657">  1  4  2 -1</clus>
<clus scale="   37.972">  1  5  2 -1</clus>
<clus scale="   82.474">  2  6  1 -1</clus>
<clus scale="   51.657">  1  3  2 -1</clus>
</clustering>
</event>
<event>
 6    0  0.6851428E+002  0.1143653E+03  0.7546771E-02  0.1252693E+00
         21   -1    0    0  505  502  0.00000000000E+00  0.00000000000E+00  0.15276842609E+04  0.15276842609E+04  0.00000000000E+00 0.  1.
         -2   -1    0    0    0  501 -0.00000000000E+00 -0.00000000000E+00 -0.41775628779E+02  0.41775628779E+02  0.00000000000E+00 0.  1.
         21    1    1    2  503  502  0.15736577326E+02  0.35177975161E+02  0.32498621462E+03  0.32726315023E+03  0.00000000000E+00 0.  1.
         21    1    1    2  504  501 -0.78222607567E+02  0.22151678859E+02  0.59100481441E+03  0.59657033439E+03  0.00000000000E+00 0.  1.
         21    1    1    2  505  504 -0.58215611365E+02 -0.71068320449E+02  0.49378967428E+03  0.50226288535E+03  0.00000000000E+00 0.  1.
         -2    1    1    2    0  503  0.12070164161E+03  0.13738666428E+02  0.76127928821E+02  0.14336351973E+03  0.00000000000E+00 0.  1.
<scales pt_clust_3="38.53738" pt_clust_4="114.36530" pt_clust_5="76.57040" pt_clust_6="14000.00000"></scales>
<clustering>
<clus scale="   38.537">  1  3  2 -1</clus>
<clus scale="   76.570">  1  5  2 -1</clus>
<clus scale="  114.365">  1  4  2 -1</clus>
<clus scale="   38.537">  1  3  2 -1</clus>
</clustering>
</event>
<event>
 6    0  0.6851428E+002  0.1744212E+03  0.7546771E-02  0.1173314E+00
          1   -1    0    0  505    0 -0.00000000000E+00  0.00000000000E+00  0.78185404632E+03  0.78185404632E+03  0.00000000000E+00 0. -1.
         21   -1    0    0  504  502  0.00000000000E+00 -0.00000000000E+00 -0.17800278560E+03  0.17800278560E+03  0.00000000000E+00 0. -1.
         21    1    1    2  503  502 -0.37704097472E+02  0.13356106575E+03  0.28989954209E+03  0.32140613211E+03  0.00000000000E+00 0. -1.
         21    1    1    2  504  501  0.11649291819E+03 -0.14071950279E+03 -0.97673073597E+02  0.20715358495E+03  0.00000000000E+00 0. -1.
         21    1    1    2  505  503 -0.43564349175E+02  0.87227387103E+01  0.45914946197E+02  0.63891478101E+02  0.00000000000E+00 0. -1.
          1    1    1    2  501    0 -0.35224471539E+02 -0.15643016744E+01  0.36570984603E+03  0.36740563676E+03  0.00000000000E+00 0. -1.
<scales pt_clust_3="174.42123" pt_clust_4="14000.00000" pt_clust_5="48.96730" pt_clust_6="35.25919"></scales>
<clustering>
<clus scale="   35.259">  1  6  2 -1</clus>
<clus scale="   48.967">  1  5  2 -1</clus>
<clus scale="  174.421">  1  3  2 -1</clus>
<clus scale="  174.421">  2  3  1 -1</clus>
</clustering>
</event>
<event>
 6    0  0.6851428E+002  0.2130040E+03  0.7546771E-02  0.1139209E+00
         21   -1    0    0  503  502  0.00000000000E+00  0.00000000000E+00  0.97529746885E+03  0.97529746885E+03  0.00000000000E+00 0. -1.
          1   -1    0    0  505    0 -0.00000000000E+00 -0.00000000000E+00 -0.23673396346E+04  0.23673396346E+04  0.00000000000E+00 0. -1.
         21    1    1    2  503  504 -0.81112816390E+01  0.63633911513E+02  0.47030904987E+03  0.47466374411E+03  0.00000000000E+00 0. -1.
         21    1    1    2  504  501 -0.18716386055E+03 -0.99180718029E+02  0.20262592766E+03  0.29312862720E+03  0.00000000000E+00 0.  1.
         21    1    1    2  505  502  0.23295605011E+03 -0.14191833291E+02  0.20099837715E+03  0.30801018982E+03  0.00000000000E+00 0. -1.
          1    1    1    2  501    0 -0.37680907915E+02  0.49738639806E+02 -0.22659755204E+04  0.22668345423E+04  0.00000000000E+00 0. -1.
<scales pt_clust_3="65.31936" pt_clust_4="14000.00000" pt_clust_5="213.00401" pt_clust_6="62.40019"></scales>
<clustering>
<clus scale="   62.400">  2  6  1 -1</clus>
<clus scale="   65.319">  1  3  2 -1</clus>
<clus scale="  213.004">  2  5  1 -1</clus>
<clus scale="   65.319">  1  3  2 -1</clus>
</clustering>
</event>
<event>
 6    0  0.6851428E+002  0.9050613E+02  0.7546771E-02  0.1301631E+00
         21   -1    0    0  503  502  0.00000000000E+00  0.00000000000E+00  0.89079726086E+02  0.89079726086E+02  0.00000000000E+00 0.  1.
          2   -1    0    0  505    0 -0.00000000000E+00 -0.00000000000E+00 -0.63993150269E+03  0.63993150269E+03  0.00000000000E+00 0.  1.
         21    1    1    2  503  504 -0.89453452659E+02  0.23782550496E+02 -0.12230605202E+03  0.15338285517E+03  0.00000000000E+00 0.  1.
         21    1    1    2  504  501  0.83399684278E+02  0.32041857905E+02 -0.18195915605E+03  0.20270994663E+03  0.00000000000E+00 0.  1.
         21    1    1    2  505  502 -0.38741238649E+01 -0.94239143565E+02  0.25699048553E+02  0.97757179338E+02  0.00000000000E+00 0.  1.
          2    1    1    2  501    0  0.99278922458E+01  0.38414735163E+02 -0.27228561709E+03  0.27516124763E+03  0.00000000000E+00 0.  1.
<scales pt_clust_3="87.82726" pt_clust_4="14000.00000" pt_clust_5="90.50613" pt_clust_6="39.67688"></scales>
<clustering>
<clus scale="   39.677">  2  6  1 -1</clus>
<clus scale="   90.506">  1  5  2 -1</clus>
<clus scale="   87.827">  1  3  2 -1</clus>
<clus scale="   90.506">  1  3  2 -1</clus>
</clustering>
</event>
<event>
 6    0  0.6851428E+002  0.1035388E+03  0.7546771E-02  0.1273026E+00
         -1   -1    0    0    0  501 -0.00000000000E+00  0.00000000000E+00  0.41815444207E+03  0.41815444207E+03  0.00000000000E+00 0.  1.
         21   -1    0    0  504  502  0.00000000000E+00 -0.00000000000E+00 -0.32400496013E+03  0.32400496013E+03  0.00000000000E+00 0. -1.
         21    1    1    2  503  502 -0.12838071001E+03 -0.21775397376E+02 -0.22962212278E+03  0.26397366138E+03  0.00000000000E+00 0. -1.
         21    1    1    2  504  505  0.40047207098E+02  0.81564490776E+02 -0.26760100545E+02  0.94724062060E+02  0.00000000000E+00 0. -1.
         21    1    1    2  505  501  0.51770879716E+01 -0.30788703279E+02  0.11650503645E+02  0.33323876195E+02  0.00000000000E+00 0.  1.
         -1    1    1    2    0  503  0.83156414939E+02 -0.29000390121E+02  0.33888120162E+03  0.35013780257E+03  0.00000000000E+00 0.  1.
<scales pt_clust_3="103.53881" pt_clust_4="88.70167" pt_clust_5="31.22093" pt_clust_6="14000.00000"></scales>
<clustering>
<clus scale="   31.221">  1  5  2 -1</clus>
<clus scale="   88.702">  2  4  1 -1</clus>
<clus scale="  103.539">  2  3  1 -1</clus>
<clus scale="   88.702">  2  3  1 -1</clus>
</clustering>
</event>
<event>
 6    0  0.6851428E+002  0.1031400E+03  0.7546771E-02  0.1273828E+00
         21   -1    0    0  503  502  0.00000000000E+00  0.00000000000E+00  0.17099974448E+03  0.17099974448E+03  0.00000000000E+00 0. -1.
          2   -1    0    0  505    0 -0.00000000000E+00 -0.00000000000E+00 -0.36254444660E+03  0.36254444660E+03  0.00000000000E+00 0.  1.
         21    1    1    2  503  501  0.54288607831E+02 -0.91400786736E+01 -0.30226222922E+02  0.62804605966E+02  0.00000000000E+00 0. -1.
         21    1    1    2  504  502 -0.67818027192E+02  0.88825971835E+02  0.10009733659E+03  0.15002938004E+03  0.00000000000E+00 0. -1.
         21    1    1    2  505  504 -0.35544943035E+02 -0.10021253675E+03 -0.84044533984E+02  0.13553405177E+03  0.00000000000E+00 0. -1.
          2    1    1    2  501    0  0.49074362396E+02  0.20526643589E+02 -0.17737128181E+03  0.18517615330E+03  0.00000000000E+00 0.  1.
<scales pt_clust_3="66.99349" pt_clust_4="14000.00000" pt_clust_5="103.13997" pt_clust_6="53.19432"></scales>
<clustering>
<clus scale="   53.194">  2  6  1 -1</clus>
<clus scale="   66.993">  2  3  1 -1</clus>
<clus scale="  103.140">  2  5  1 -1</clus>
<clus scale="  103.140">  1  3  2 -1</clus>
</clustering>
</event>
<event>
 6    0  0.6851428E+002  0.8662303E+02  0.7546771E-02  0.1311242E+00
         -1   -1    0    0    0  501 -0.00000000000E+00  0.00000000000E+00  0.16475289061E+03  0.16475289061E+03  0.00000000000E+00 0.  1.
         21   -1    0    0  503  502  0.00000000000E+00 -0.00000000000E+00 -0.43450520275E+03  0.43450520275E+03  0.00000000000E+00 0. -1.
         21    1    1    2  503  501 -0.15496159856E+02  0.52415608129E+02 -0.56071709115E+02  0.78304300705E+02  0.00000000000E+00 0. -1.
         21    1    1    2  504  502  0.81616265053E+02  0.45085897400E+02 -0.24565642476E+03  0.26275660200E+03  0.00000000000E+00 0. -1.
         21    1    1    2  505  504 -0.43170354024E+02 -0.69700308217E+02 -0.95416738558E+02  0.12580209231E+03  0.00000000000E+00 0.  1.
         -1    1    1    2    0  505 -0.22949751174E+02 -0.27801197312E+02  0.12739256029E+03  0.13239509835E+03  0.00000000000E+00 0.  1.
<scales pt_clust_3="49.16414" pt_clust_4="14000.00000" pt_clust_5="86.62303" pt_clust_6="36.04993"></scales>
<clustering>
<clus scale="   36.050">  1  6  2 -1</clus>
<clus scale="   49.164">  1  3  2 -1</clus>
<clus scale="   86.623">  1  5  2 -1</clus>
<clus scale="   86.623">  2  3  1 -1</clus>
</clustering>
</event>
<event>
 6    0  0.6851428E+002  0.1249235E+03  0.7546771E-02  0.1235189E+00
         21   -1    0    0  501  502  0.00000000000E+00  0.00000000000E+00  0.34363993636E+03  0.34363993636E+03  0.00000000000E+00 0. -1.
          2   -1    0    0  504    0 -0.00000000000E+00 -0.00000000000E+00 -0.14580350112E+03  0.14580350112E+03  0.00000000000E+00 0. -1.
         21    1    1    2  503  502 -0.10987865647E+03  0.98804514122E+01  0.23367697856E+03  0.25841027994E+03  0.00000000000E+00 0. -1.
         21    1    1    2  504  505  0.51959706666E+02  0.18695118360E+02 -0.13151297256E+02  0.56765087746E+02  0.00000000000E+00 0. -1.
         21    1    1    2  505  503  0.99085172142E+02 -0.21470095096E+00  0.28111477782E+02  0.10299598350E+03  0.00000000000E+00 0. -1.
          2    1    1    2  501    0 -0.41166222336E+02 -0.28360868821E+02 -0.50800723848E+02  0.71272086298E+02  0.00000000000E+00 0. -1.
<scales pt_clust_3="116.02660" pt_clust_4="34.56440" pt_clust_5="34.56440" pt_clust_6="49.98997"></scales>
<clustering>
<clus scale="   34.564">  4  5 -1 -1</clus>
<clus scale="   49.990">  2  6  1 -1</clus>
<clus scale="  116.027">  1  3  2 -1</clus>
<clus scale="  116.027">  1  3  2 -1</clus>
</clustering>
</event>
<event>
 6    0  0.6851428E+002  0.7352860E+02  0.7546771E-02  0.1348489E+00
         -2   -1    0    0    0  501 -0.00000000000E+00  0.00000000000E+00  0.40104195583E+03  0.40104195583E+03  0.00000000000E+00 0.  1.
         21   -1    0    0  503  502  0.00000000000E+00 -0.00000000000E+00 -0.49491245938E+02  0.49491245938E+02  0.00000000000E+00 0.  1.
         21    1    1    2  503  501  0.51423695140E+01 -0.53219357193E+02  0.27923337293E+02  0.60319621267E+02  0.00000000000E+00 0.  1.
         21    1    1    2  504  505 -0.52517739245E+02 -0.99206710556E+01  0.68461257989E+02  0.86853189320E+02  0.00000000000E+00 0.  1.
         21    1    1    2  505  502  0.84162154532E+02  0.65327211823E+02  0.10821823788E+03  0.15186210808E+03  0.00000000000E+00 0.  1.
         -2    1    1    2    0  504 -0.36786784801E+02 -0.21871835748E+01  0.14694787673E+03  0.15149828310E+03  0.00000000000E+00 0.  1.
<scales pt_clust_3="53.61841" pt_clust_4="14000.00000" pt_clust_5="73.52860" pt_clust_6="36.85175"></scales>
<clustering>
<clus scale="   36.852">  1  6  2 -1</clus>
<clus scale="   53.618">  2  3  1 -1</clus>
<clus scale="   73.529">  2  5  1 -1</clus>
<clus scale="   53.618">  2  3  1 -1</clus>
</clustering>
</event>
<event>
 6    0  0.6851428E+002  0.8615866E+02  0.7546771E-02  0.1312430E+00
         21   -1    0    0  504  502  0.00000000000E+00  0.00000000000E+00  0.58160909594E+03  0.58160909594E+03  0.00000000000E+00 0. -1.
         -2   -1    0    0    0  501 -0.00000000000E+00 -0.00000000000E+00 -0.78557657762E+02  0.78557657762E+02  0.00000000000E+00 0. -1.
         21    1    1    2  503  501  0.81079766546E+02  0.72686246208E+02  0.25849969247E+03  0.28049832431E+03  0.00000000000E+00 0. -1.
         21    1    1    2  504  505  0.37553938828E+00 -0.40081516148E+02  0.68530892717E+02  0.79392393988E+02  0.00000000000E+00 0. -1.
         21    1    1    2  505  503 -0.84657486852E+02  0.20922210351E+02  0.21629548242E+03  0.23321313145E+03  0.00000000000E+00 0. -1.
         -2    1    1    2    0  502  0.32021809177E+01 -0.53526940412E+02 -0.40274629424E+02  0.67062903961E+02  0.00000000000E+00 0. -1.
<scales pt_clust_3="86.15866" pt_clust_4="40.08328" pt_clust_5="14000.00000" pt_clust_6="54.67891"></scales>
<clustering>
<clus scale="   40.083">  1  4  2 -1</clus>
<clus scale="   54.679">  2  6  1 -1</clus>
<clus scale="   86.159">  2  3  1 -1</clus>
<clus scale="   40.083">  1  3  2 -1</clus>
</clustering>
</event>
<event>
 6    0  0.6851428E+002  0.9255631E+02  0.7546771E-02  0.1296777E+00
          2   -1    0    0  505    0 -0.00000000000E+00  0.00000000000E+00  0.25668548080E+04  0.25668548080E+04  0.00000000000E+00 0.  1.
         21   -1    0    0  503  502  0.00000000000E+00 -0.00000000000E+00 -0.55784574200E+02  0.55784574200E+02  0.00000000000E+00 0. -1.
         21    1    1    2  503  501 -0.35993516980E+02 -0.12218896264E+02  0.83584735837E+02  0.91821798912E+02  0.00000000000E+00 0. -1.
         21    1    1    2  504  502  0.62795299918E+02 -0.49107858058E+02  0.43285416182E+02  0.90710851991E+02  0.00000000000E+00 0. -1.
         21    1    1    2  505  504 -0.54755871430E+02 -0.28667748182E+02  0.83263335428E+01  0.62364838427E+02  0.00000000000E+00 0. -1.
          2    1    1    2  501    0  0.27954088491E+02  0.89994502504E+02  0.23758737482E+04  0.23777418929E+04  0.00000000000E+00 0.  1.
<scales pt_clust_3="38.01098" pt_clust_4="71.66075" pt_clust_5="14000.00000" pt_clust_6="92.55631"></scales>
<clustering>
<clus scale="   38.011">  2  3  1 -1</clus>
<clus scale="   71.661">  2  4  1 -1</clus>
<clus scale="   92.556">  1  6  2 -1</clus>
<clus scale="   38.011">  2  3  1 -1</clus>
</clustering>
</event>
<event>
 6    0  0.6851428E+002  0.1197278E+03  0.7546771E-02  0.1243547E+00
         21   -1    0    0  501  502  0.00000000000E+00  0.00000000000E+00  0.52589934093E+03  0.52589934093E+03  0.00000000000E+00 0.  1.
         -3   -1    0    0    0  501 -0.00000000000E+00 -0.00000000000E+00 -0.65006830800E+03  0.65006830800E+03  0.00000000000E+00 0. -1.
         21    1    1    2  503  502  0.88844419043E+02  0.23674928064E+02  0.36928218515E+03  0.38055638910E+03  0.00000000000E+00 0.  1.
         21    1    1    2  504  503 -0.11524027756E+03  0.31749745930E+02 -0.19107179874E+02  0.12105144469E+03  0.00000000000E+00 0.  1.
         21    1    1    2  505  504  0.98649670010E+02  0.42428997127E+02  0.62267967324E+02  0.12413410871E+03  0.00000000000E+00 0. -1.
         -3    1    1    2    0  505 -0.72253811492E+02 -0.97853671120E+02 -0.53661193966E+03  0.55022570643E+03  0.00000000000E+00 0. -1.
<scales pt_clust_3="91.94473" pt_clust_4="94.05475" pt_clust_5="14000.00000" pt_clust_6="119.72781"></scales>
<clustering>
<clus scale="   91.945">  1  3  2 -1</clus>
<clus scale="   94.055">  1  4  2 -1</clus>
<clus scale="  119.728">  2  6  1 -1</clus>
<clus scale="   91.945">  1  3  2 -1</clus>
</clustering>
</event>
<event>
 6    0  0.6851428E+002  0.2587454E+03  0.7546771E-02  0.1107899E+00
         21   -1    0    0  501  502  0.00000000000E+00  0.00000000000E+00  0.59345677572E+03  0.59345677572E+03  0.00000000000E+00 0.  1.
          1   -1    0    0  503    0 -0.00000000000E+00 -0.00000000000E+00 -0.69014392260E+03  0.69014392260E+03  0.00000000000E+00 0. -1.
         21    1    1    2  503  504  0.82394851792E+02 -0.48163800781E+02  0.56534640488E+02  0.11092713321E+03  0.00000000000E+00 0.  1.
         21    1    1    2  504  505  0.11196980481E+03 -0.50082942537E+02  0.21357973110E+03  0.24629624411E+03  0.00000000000E+00 0.  1.
         21    1    1    2  505  502  0.47219263465E+02  0.47122936516E+02  0.25170717755E+03  0.26039726039E+03  0.00000000000E+00 0.  1.
          1    1    1    2  501    0 -0.24158392007E+03  0.51123806802E+02 -0.61850869603E+03  0.66598006061E+03  0.00000000000E+00 0. -1.
<scales pt_clust_3="70.81155" pt_clust_4="70.81155" pt_clust_5="66.71004" pt_clust_6="244.40220"></scales>
<clustering>
<clus scale="   66.710">  1  5  2 -1</clus>
<clus scale="   70.812">  3  4 -1 -1</clus>
<clus scale="  244.402">  2  6  1 -1</clus>
<clus scale="   66.710">  1  3  2 -1</clus>
</clustering>
</event>
<event>
 6    0  0.6851428E+002  0.1338395E+03  0.7546771E-02  0.1221867E+00
         -2   -1    0    0    0  501 -0.00000000000E+00  0.00000000000E+00  0.61480508655E+03  0.61480508655E+03  0.00000000000E+00 0. -1.
         21   -1    0    0  503  502  0.00000000000E+00 -0.00000000000E+00 -0.58806948342E+03  0.58806948342E+03  0.00000000000E+00 0.  1.
         21    1    1    2  503  505  0.79261477651E+02 -0.97145373320E+02 -0.37080561750E+03  0.39142867980E+03  0.00000000000E+00 0.  1.
         21    1    1    2  504  502  0.50852947281E+02  0.31515703141E+02 -0.13283208364E+03  0.14568330115E+03  0.00000000000E+00 0.  1.
         21    1    1    2  505  501 -0.11523479760E+03  0.37445492007E+02 -0.12631999203E+02  0.12182278462E+03  0.00000000000E+00 0.  1.
         -2    1    1    2    0  504 -0.14879627332E+02  0.28184178173E+02  0.54300530347E+03  0.54393980440E+03  0.00000000000E+00 0. -1.
<scales pt_clust_3="133.83951" pt_clust_4="60.09333" pt_clust_5="14000.00000" pt_clust_6="31.87085"></scales>
<clustering>
<clus scale="   31.871">  1  6  2 -1</clus>
<clus scale="   60.093">  2  4  1 -1</clus>
<clus scale="  133.840">  2  3  1 -1</clus>
<clus scale="   60.093">  2  3  1 -1</clus>
</clustering>
</event>
<event>
 6    0  0.6851428E+002  0.8602377E+02  0.7546771E-02  0.1312777E+00
          1   -1    0    0  504    0 -0.00000000000E+00  0.00000000000E+00  0.80818126461E+03  0.80818126461E+03  0.00000000000E+00 0. -1.
         21   -1    0    0  505  502  0.00000000000E+00 -0.00000000000E+00 -0.28751436118E+03  0.28751436118E+03  0.00000000000E+00 0.  1.
         21    1    1    2  503  502  0.70070187795E+02 -0.27833055708E+01 -0.10256637934E+03  0.12424749566E+03  0.00000000000E+00 0.  1.
         21    1    1    2  504  503  0.82226813491E+01  0.60669291007E+02 -0.67171875954E+02  0.90886942291E+02  0.00000000000E+00 0.  1.
         21    1    1    2  505  501 -0.52525680922E+02 -0.11165645172E+03 -0.53340269018E+02  0.13442951560E+03  0.00000000000E+00 0.  1.
          1    1    1    2  501    0 -0.25767188221E+02  0.53770466280E+02  0.74374542774E+03  0.74613167224E+03  0.00000000000E+00 0. -1.
<scales pt_clust_3="65.96786" pt_clust_4="14000.00000" pt_clust_5="86.02377" pt_clust_6="59.62559"></scales>
<clustering>
<clus scale="   59.626">  1  6  2 -1</clus>
<clus scale="   65.968">  2  3  1 -1</clus>
<clus scale="   86.024">  1  5  2 -1</clus>
<clus scale="   65.968">  2  3  1 -1</clus>
</clustering>
</event>
<event>
 6    0  0.6851428E+002  0.5764518E+02  0.7546771E-02  0.1407988E+00
          1   -1    0    0  504    0 -0.00000000000E+00  0.00000000000E+00  0.61694509658E+03  0.61694509658E+03  0.00000000000E+00 0. -1.
         21   -1    0    0  503  502  0.00000000000E+00 -0.00000000000E+00 -0.11117135345E+04  0.11117135345E+04  0.00000000000E+00 0. -1.
         21    1    1    2  503  505  0.30842726419E+02 -0.74837983757E+01 -0.70397629092E+03  0.70469135030E+03  0.00000000000E+00 0. -1.
         21    1    1    2  504  502 -0.72012200369E+01  0.55683253812E+02 -0.34213799520E+02  0.65750029678E+02  0.00000000000E+00 0.  1.
         21    1    1    2  505  501 -0.55432114076E+02 -0.96037220993E+02 -0.34737041940E+03  0.36463965138E+03  0.00000000000E+00 0. -1.
          1    1    1    2  501    0  0.31790607695E+02  0.47837765557E+02  0.59079207196E+03  0.59357759968E+03  0.00000000000E+00 0. -1.
<scales pt_clust_3="31.73769" pt_clust_4="54.87156" pt_clust_5="14000.00000" pt_clust_6="57.64518"></scales>
<clustering>
<clus scale="   31.738">  2  3  1 -1</clus>
<clus scale="   54.872">  2  4  1 -1</clus>
<clus scale="   57.645">  1  6  2 -1</clus>
<clus scale="   31.738">  2  3  1 -1</clus>
</clustering>
</event>
<event>
 6    0  0.6851428E+002  0.8740381E+02  0.7546771E-02  0.1309263E+00
         21   -1    0    0  505  502  0.00000000000E+00  0.00000000000E+00  0.19048295756E+04  0.19048295756E+04  0.00000000000E+00 0.  1.
          2   -1    0    0  503    0 -0.00000000000E+00 -0.00000000000E+00 -0.31218267067E+02  0.31218267067E+02  0.00000000000E+00 0. -1.
         21    1    1    2  503  504 -0.43526424236E+02 -0.12038249407E+03  0.94256971705E+03  0.95122245872E+03  0.00000000000E+00 0.  1.
         21    1    1    2  504  502  0.31357889306E+02  0.47983220177E+02  0.73236076017E+03  0.73460056472E+03  0.00000000000E+00 0.  1.
         21    1    1    2  505  501  0.32992491175E+02  0.23996330418E+02  0.19295696479E+03  0.19722251040E+03  0.00000000000E+00 0. -1.
          2    1    1    2  501    0 -0.20823956245E+02  0.48402943473E+02  0.57238664958E+01  0.53002308801E+02  0.00000000000E+00 0. -1.
<scales pt_clust_3="87.40381" pt_clust_4="14000.00000" pt_clust_5="40.79618" pt_clust_6="52.85139"></scales>
<clustering>
<clus scale="   40.796">  1  5  2 -1</clus>
<clus scale="   52.851">  2  6  1 -1</clus>
<clus scale="   87.404">  2  3  1 -1</clus>
<clus scale="   40.796">  1  3  2 -1</clus>
</clustering>
</event>
<event>
 6    0  0.6851428E+002  0.1014703E+03  0.7546771E-02  0.1277234E+00
         21   -1    0    0  505  502  0.00000000000E+00  0.00000000000E+00  0.61361959860E+03  0.61361959860E+03  0.00000000000E+00 0.  1.
          2   -1    0    0  503    0 -0.00000000000E+00 -0.00000000000E+00 -0.41187509531E+03  0.41187509531E+03  0.00000000000E+00 0.  1.
         21    1    1    2  503  504 -0.13979573607E+02 -0.10799120093E+03 -0.61681454123E+02  0.12514843083E+03  0.00000000000E+00 0.  1.
         21    1    1    2  504  502  0.30609803191E+02  0.17151068071E+02  0.55147535415E+03  0.55259043190E+03  0.00000000000E+00 0.  1.
         21    1    1    2  505  501  0.18196647904E+02  0.94534848317E+02 -0.52574284713E+02  0.10969052354E+03  0.00000000000E+00 0. -1.
          2    1    1    2  501    0 -0.34826877488E+02 -0.36947154602E+01 -0.23547511203E+03  0.23806530764E+03  0.00000000000E+00 0.  1.
<scales pt_clust_3="14000.00000" pt_clust_4="34.98485" pt_clust_5="101.47030" pt_clust_6="35.02231"></scales>
<clustering>
<clus scale="   35.022">  2  6  1 -1</clus>
<clus scale="   34.985">  1  4  2 -1</clus>
<clus scale="  101.470">  2  5  1 -1</clus>
<clus scale="   34.985">  1  3  2 -1</clus>
</clustering>
</event>
<event>
 6    0  0.6851428E+002  0.1019712E+03  0.7546771E-02  0.1276205E+00
          1   -1    0    0  504    0 -0.00000000000E+00  0.00000000000E+00  0.12484634099E+04  0.12484634099E+04  0.00000000000E+00 0.  1.
         21   -1    0    0  503  502  0.00000000000E+00 -0.00000000000E+00 -0.44569241150E+02  0.44569241150E+02  0.00000000000E+00 0.  1.
         21    1    1    2  503  501 -0.46440621653E+02 -0.17782411062E+02  0.11735357216E+02  0.51094658153E+02  0.00000000000E+00 0.  1.
         21    1    1    2  504  505  0.81932474623E+02 -0.71003020075E+02  0.39976348951E+03  0.41420430563E+03  0.00000000000E+00 0.  1.
         21    1    1    2  505  502  0.75598282180E+01  0.11570569395E+03  0.18577168428E+03  0.21898876066E+03  0.00000000000E+00 0.  1.
          1    1    1    2  501    0 -0.43051681187E+02 -0.26920262810E+02  0.60662363776E+03  0.60874492662E+03  0.00000000000E+00 0.  1.
<scales pt_clust_3="49.72872" pt_clust_4="14000.00000" pt_clust_5="101.97116" pt_clust_6="52.85677"></scales>
<clustering>
<clus scale="   49.729">  2  3  1 -1</clus>
<clus scale="   52.857">  1  6  2 -1</clus>
<clus scale="  101.971">  2  5  1 -1</clus>
<clus scale="   49.729">  2  3  1 -1</clus>
</clustering>
</event>
<event>
 6    0  0.6851428E+002  0.1014064E+03  0.7546771E-02  0.1277366E+00
         21   -1    0    0  503  502  0.00000000000E+00  0.00000000000E+00  0.59374038113E+02  0.59374038113E+02  0.00000000000E+00 0. -1.
          1   -1    0    0  504    0 -0.00000000000E+00 -0.00000000000E+00 -0.17231071285E+04  0.17231071285E+04  0.00000000000E+00 0. -1.
         21    1    1    2  503  501 -0.81784796659E+02  0.70417769666E+02 -0.10409001220E+03  0.14994047449E+03  0.00000000000E+00 0. -1.
         21    1    1    2  504  505  0.18119662363E+03  0.18733721159E+02 -0.29747592349E+03  0.34881957196E+03  0.00000000000E+00 0. -1.
         21    1    1    2  505  502 -0.74313145472E+01 -0.63915529738E+02 -0.10870188047E+03  0.12631911255E+03  0.00000000000E+00 0. -1.
          1    1    1    2  501    0 -0.91980512425E+02 -0.25235961087E+02 -0.11534652742E+04  0.11574020076E+04  0.00000000000E+00 0. -1.
<scales pt_clust_3="94.70199" pt_clust_4="101.40642" pt_clust_5="64.34609" pt_clust_6="14000.00000"></scales>
<clustering>
<clus scale="   64.346">  1  5  2 -1</clus>
<clus scale="   94.702">  1  3  2 -1</clus>
<clus scale="  101.406">  1  4  2 -1</clus>
<clus scale="   64.346">  1  3  2 -1</clus>
</clustering>
</event>
<event>
 6    0  0.6851428E+002  0.8706795E+02  0.7546771E-02  0.1310112E+00
         -1   -1    0    0    0  501 -0.00000000000E+00  0.00000000000E+00  0.84929615182E+03  0.84929615182E+03  0.00000000000E+00 0. -1.
         21   -1    0    0  503  502  0.00000000000E+00 -0.00000000000E+00 -0.57644358605E+02  0.57644358605E+02  0.00000000000E+00 0. -1.
         21    1    1    2  503  501 -0.68811752086E+02  0.90616289581E+02  0.62569542867E+02  0.12985113345E+03  0.00000000000E+00 0. -1.
         21    1    1    2  504  502  0.45094794532E+02  0.17054852271E+02  0.25044358846E+02  0.54328890932E+02  0.00000000000E+00 0. -1.
         21    1    1    2  505  504 -0.28643843210E+02 -0.41024269550E+02  0.90623735666E+02  0.10351870320E+03  0.00000000000E+00 0. -1.
         -1    1    1    2    0  505  0.52360800763E+02 -0.66646872301E+02  0.61341415584E+03  0.61924178285E+03  0.00000000000E+00 0. -1.
<scales pt_clust_3="87.06795" pt_clust_4="48.21212" pt_clust_5="44.25574" pt_clust_6="14000.00000"></scales>
<clustering>
<clus scale="   48.212">  2  4  1 -1</clus>
<clus scale="   44.256">  2  5  1 -1</clus>
<clus scale="   87.068">  2  3  1 -1</clus>
<clus scale="   48.212">  2  3  1 -1</clus>
</clustering>
</event>
<event>
 6    0  0.6851428E+002  0.8482859E+02  0.7546771E-02  0.1315881E+00
          2   -1    0    0  505    0 -0.00000000000E+00  0.00000000000E+00  0.48103334924E+04  0.48103334924E+04  0.00000000000E+00 0.  1.
         21   -1    0    0  504  502  0.00000000000E+00 -0.00000000000E+00 -0.85359954594E+01  0.85359954594E+01  0.00000000000E+00 0.  1.
         21    1    1    2  503  502  0.40834244061E+02  0.14581389577E+02  0.48650512129E+03  0.48843350156E+03  0.00000000000E+00 0. -1.
         21    1    1    2  504  501  0.41082427138E+02 -0.29676063614E+02  0.11937601102E+03  0.12968834403E+03  0.00000000000E+00 0.  1.
         21    1    1    2  505  503  0.55361544205E+02  0.78738075212E+01  0.18190721600E+04  0.18199314330E+04  0.00000000000E+00 0.  1.
          2    1    1    2  501    0 -0.13727821540E+03  0.72208665159E+01  0.23768442047E+04  0.23808162093E+04  0.00000000000E+00 0.  1.
<scales pt_clust_3="43.35957" pt_clust_4="84.82859" pt_clust_5="58.33117" pt_clust_6="14000.00000"></scales>
<clustering>
<clus scale="   43.360">  2  3  1 -1</clus>
<clus scale="   58.331">  1  5  2 -1</clus>
<clus scale="   84.829">  2  4  1 -1</clus>
<clus scale="   43.360">  2  3  1 -1</clus>
</clustering>
</event>
<event>
 6    0  0.6851428E+002  0.1597496E+03  0.7546771E-02  0.1188980E+00
          1   -1    0    0  503    0 -0.00000000000E+00  0.00000000000E+00  0.85045536046E+03  0.85045536046E+03  0.00000000000E+00 0.  1.
         21   -1    0    0  504  502  0.00000000000E+00 -0.00000000000E+00 -0.16218953877E+03  0.16218953877E+03  0.00000000000E+00 0.  1.
         21    1    1    2  503  505 -0.76287509132E+01  0.69249491319E+02  0.60575137294E+02  0.92320296504E+02  0.00000000000E+00 0.  1.
         21    1    1    2  504  501  0.10731419963E+02 -0.31351655278E+02 -0.12271225354E+03  0.12710777644E+03  0.00000000000E+00 0.  1.
         21    1    1    2  505  502 -0.34744365740E+02  0.98828397478E+02  0.20718556612E+03  0.23216391173E+03  0.00000000000E+00 0.  1.
          1    1    1    2  501    0  0.31641696690E+02 -0.13672623352E+03  0.54321737181E+03  0.56105291456E+03  0.00000000000E+00 0.  1.
<scales pt_clust_3="46.05636" pt_clust_4="33.13744" pt_clust_5="46.05636" pt_clust_6="148.22744"></scales>
<clustering>
<clus scale="   33.137">  2  4  1 -1</clus>
<clus scale="   46.056">  3  5 -1 -1</clus>
<clus scale="  148.227">  1  6  2 -1</clus>
<clus scale="   33.137">  2  3  1 -1</clus>
</clustering>
</event>
<event>
 6    0  0.6851428E+002  0.9847602E+02  0.7546771E-02  0.1283534E+00
          3   -1    0    0  503    0 -0.00000000000E+00  0.00000000000E+00  0.13863060520E+04  0.13863060520E+04  0.00000000000E+00 0. -1.
         21   -1    0    0  504  502  0.00000000000E+00 -0.00000000000E+00 -0.14613191254E+02  0.14613191254E+02  0.00000000000E+00 0. -1.
         21    1    1    2  503  505  0.14252220252E+02 -0.56486062732E+02  0.22488279997E+03  0.23230599387E+03  0.00000000000E+00 0. -1.
         21    1    1    2  504  501 -0.49748167689E+02  0.41777191584E+02  0.19325182518E+03  0.20387859588E+03  0.00000000000E+00 0. -1.
         21    1    1    2  505  502  0.22416922334E+02 -0.63358006316E+02  0.45177870861E+03  0.45675021283E+03  0.00000000000E+00 0. -1.
          3    1    1    2  501    0  0.13079025102E+02  0.78066877463E+02  0.50177952696E+03  0.50798444064E+03  0.00000000000E+00 0. -1.
<scales pt_clust_3="32.52533" pt_clust_4="64.96317" pt_clust_5="32.52533" pt_clust_6="92.07114"></scales>
<clustering>
<clus scale="   32.525">  3  5 -1 -1</clus>
<clus scale="   64.963">  2  4  1 -1</clus>
<clus scale="   92.071">  1  6  2 -1</clus>
<clus scale="   64.963">  2  3  1 -1</clus>
</clustering>
</event>
<event>
 6    0  0.6851428E+002  0.1000302E+03  0.7546771E-02  0.1280233E+00
         21   -1    0    0  503  502  0.00000000000E+00  0.00000000000E+00  0.11522141970E+04  0.11522141970E+04  0.00000000000E+00 0.  1.
         -3   -1    0    0    0  501 -0.00000000000E+00 -0.00000000000E+00 -0.46211330324E+02  0.46211330324E+02  0.00000000000E+00 0. -1.
         21    1    1    2  503  501 -0.74983080395E+01 -0.48668501482E+02  0.15653359651E+03  0.16409635735E+03  0.00000000000E+00 0. -1.
         21    1    1    2  504  502  0.33040821563E+02 -0.31312987664E+02  0.65160283921E+03  0.65319098214E+03  0.00000000000E+00 0.  1.
         21    1    1    2  505  504 -0.97479049734E+02 -0.37205294791E+01  0.23424817711E+03  0.25374833193E+03  0.00000000000E+00 0.  1.
         -3    1    1    2    0  505  0.71936536210E+02  0.83702018625E+02  0.63618253844E+02  0.12738985590E+03  0.00000000000E+00 0. -1.
<scales pt_clust_3="58.79381" pt_clust_4="45.52141" pt_clust_5="14000.00000" pt_clust_6="100.03017"></scales>
<clustering>
<clus scale="   45.521">  1  4  2 -1</clus>
<clus scale="   58.794">  1  3  2 -1</clus>
<clus scale="  100.030">  2  6  1 -1</clus>
<clus scale="   45.521">  1  3  2 -1</clus>
</clustering>
</event>
<event>
 6    0  0.6851428E+002  0.2668095E+03  0.7546771E-02  0.1103120E+00
          2   -1    0    0  504    0 -0.00000000000E+00  0.00000000000E+00  0.65041207075E+03  0.65041207075E+03  0.00000000000E+00 0. -1.
         21   -1    0    0  501  502  0.00000000000E+00 -0.00000000000E+00 -0.20632299311E+03  0.20632299311E+03  0.00000000000E+00 0.  1.
         21    1    1    2  503  502 -0.18817790940E+03  0.18002975961E+03  0.19988933840E+02  0.26119187853E+03  0.00000000000E+00 0.  1.
         21    1    1    2  504  505  0.41262697285E+02 -0.15612748968E+02  0.45591160566E+02  0.63442273283E+02  0.00000000000E+00 0.  1.
         21    1    1    2  505  503  0.81258071403E+02 -0.19237903282E+03  0.77507491827E+02  0.22275542131E+03  0.00000000000E+00 0. -1.
          2    1    1    2  501    0  0.65657140717E+02  0.27962022172E+02  0.30100149140E+03  0.30934549073E+03  0.00000000000E+00 0. -1.
<scales pt_clust_3="250.40644" pt_clust_4="42.33521" pt_clust_5="42.33521" pt_clust_6="71.36340"></scales>
<clustering>
<clus scale="   42.335">  4  5 -1 -1</clus>
<clus scale="   71.363">  1  6  2 -1</clus>
<clus scale="  250.406">  2  3  1 -1</clus>
<clus scale="  250.406">  2  3  1 -1</clus>
</clustering>
</event>
<event>
 6    0  0.6851428E+002  0.1110239E+03  0.7546771E-02  0.1258685E+00
         21   -1    0    0  504  502  0.00000000000E+00  0.00000000000E+00  0.32899973923E+02  0.32899973923E+02  0.00000000000E+00 0. -1.
          3   -1    0    0  503    0 -0.00000000000E+00 -0.00000000000E+00 -0.24036067935E+04  0.24036067935E+04  0.00000000000E+00 0. -1.
         21    1    1    2  503  502 -0.11063982900E+03  0.69090374201E+02 -0.38934512676E+03  0.41061451423E+03  0.00000000000E+00 0. -1.
         21    1    1    2  504  505  0.10772830606E+03 -0.38017336996E+01 -0.15081018755E+03  0.18537409144E+03  0.00000000000E+00 0. -1.
         21    1    1    2  505  501 -0.65468128771E+01 -0.10814811823E+03 -0.63615316191E+03  0.64531366144E+03  0.00000000000E+00 0. -1.
          3    1    1    2  501    0  0.94583358153E+01  0.42859477730E+02 -0.11943983434E+04  0.11952045003E+04  0.00000000000E+00 0. -1.
<scales pt_clust_3="111.02393" pt_clust_4="14000.00000" pt_clust_5="85.44399" pt_clust_6="43.89072"></scales>
<clustering>
<clus scale="   43.891">  2  6  1 -1</clus>
<clus scale="   85.444">  2  5  1 -1</clus>
<clus scale="  111.024">  2  3  1 -1</clus>
<clus scale="  111.024">  1  3  2 -1</clus>
</clustering>
</event>
<event>
 6    0  0.6851428E+002  0.1423916E+03  0.7546771E-02  0.1210147E+00
         21   -1    0    0  501  502  0.00000000000E+00  0.00000000000E+00  0.22614350659E+03  0.22614350659E+03  0.00000000000E+00 0.  1.
          1   -1    0    0  503    0 -0.00000000000E+00 -0.00000000000E+00 -0.36292252110E+03  0.36292252110E+03  0.00000000000E+00 0. -1.
         21    1    1    2  503  505  0.58567546139E+02  0.47266652491E+02  0.28034955560E+02  0.80313464822E+02  0.00000000000E+00 0.  1.
         21    1    1    2  504  502 -0.89874671291E+02 -0.10746783354E+03  0.11407039946E+03  0.18066224791E+03  0.00000000000E+00 0.  1.
         21    1    1    2  505  504 -0.51004080316E+01  0.48475777720E+02 -0.22193811096E+01  0.48793860681E+02  0.00000000000E+00 0.  1.
          1    1    1    2  501    0  0.36407533183E+02  0.11725403334E+02 -0.27666498842E+03  0.27929645428E+03  0.00000000000E+00 0. -1.
<scales pt_clust_3="49.08938" pt_clust_4="127.66542" pt_clust_5="49.08938" pt_clust_6="38.24910"></scales>
<clustering>
<clus scale="   38.249">  2  6  1 -1</clus>
<clus scale="   49.089">  3  5 -1 -1</clus>
<clus scale="  127.665">  1  4  2 -1</clus>
<clus scale="  127.665">  1  3  2 -1</clus>
</clustering>
</event>
<event>
 6    0  0.6851428E+002  0.1935432E+03  0.7546771E-02  0.1155304E+00
         21   -1    0    0  503  502  0.00000000000E+00  0.00000000000E+00  0.21921216779E+03  0.21921216779E+03  0.00000000000E+00 0.  1.
          1   -1    0    0  505    0 -0.00000000000E+00 -0.00000000000E+00 -0.15121084025E+04  0.15121084025E+04  0.00000000000E+00 0. -1.
         21    1    1    2  503  504  0.46706586880E+02  0.59508550588E+01 -0.13696325336E+02  0.49035775324E+02  0.00000000000E+00 0. -1.
         21    1    1    2  504  501 -0.12503314933E+03  0.14967700965E+03  0.13243074785E+03  0.23574222919E+03  0.00000000000E+00 0.  1.
         21    1    1    2  505  502 -0.39272981761E+02 -0.19699350719E+01 -0.25265904051E+02  0.46739850750E+02  0.00000000000E+00 0.  1.
          1    1    1    2  501    0  0.11759954421E+03 -0.15365792963E+03 -0.13863647532E+04  0.13998027150E+04  0.00000000000E+00 0. -1.
<scales pt_clust_3="43.76183" pt_clust_4="193.54324" pt_clust_5="39.32236" pt_clust_6="14000.00000"></scales>
<clustering>
<clus scale="   39.322">  1  5  2 -1</clus>
<clus scale="   43.762">  1  3  2 -1</clus>
<clus scale="  193.543">  1  4  2 -1</clus>
<clus scale="   39.322">  1  3  2 -1</clus>
</clustering>
</event>
<event>
 6    0  0.6851428E+002  0.5874699E+02  0.7546771E-02  0.1403167E+00
          2   -1    0    0  503    0 -0.00000000000E+00  0.00000000000E+00  0.37140256142E+03  0.37140256142E+03  0.00000000000E+00 0. -1.
         21   -1    0    0  505  502  0.00000000000E+00 -0.00000000000E+00 -0.93112783826E+02  0.93112783826E+02  0.00000000000E+00 0.  1.
         21    1    1    2  503  502  0.64988909241E+02 -0.73836137330E+02  0.97556216891E+01  0.98845868172E+02  0.00000000000E+00 0.  1.
         21    1    1    2  504  501 -0.49438408551E+02  0.20085482455E+02  0.52868153218E+02  0.75117404576E+02  0.00000000000E+00 0. -1.
         21    1    1    2  505  504  0.34161216550E+02  0.27475795840E+02 -0.20061140899E+02  0.48211590384E+02  0.00000000000E+00 0.  1.
          2    1    1    2  501    0 -0.49711717240E+02  0.26274859034E+02  0.23572714358E+03  0.24234048211E+03  0.00000000000E+00 0. -1.
<scales pt_clust_3="14000.00000" pt_clust_4="49.87003" pt_clust_5="43.83957" pt_clust_6="58.74699"></scales>
<clustering>
<clus scale="   43.840">  2  5  1 -1</clus>
<clus scale="   49.870">  2  4  1 -1</clus>
<clus scale="   58.747">  1  6  2 -1</clus>
<clus scale="   43.840">  2  3  1 -1</clus>
</clustering>
</event>
<event>
 6    0  0.6851428E+002  0.8127650E+02  0.7546771E-02  0.1325467E+00
          2   -1    0    0  504    0 -0.00000000000E+00  0.00000000000E+00  0.92445445928E+03  0.92445445928E+03  0.00000000000E+00 0. -1.
         21   -1    0    0  505  502  0.00000000000E+00 -0.00000000000E+00 -0.65719796229E+03  0.65719796229E+03  0.00000000000E+00 0.  1.
         21    1    1    2  503  502  0.23135823826E+02 -0.40103297090E+02 -0.62930924921E+03  0.63101004106E+03  0.00000000000E+00 0.  1.
         21    1    1    2  504  503  0.44999306383E+02 -0.10662901447E+02  0.22172534078E+02  0.51286024506E+02  0.00000000000E+00 0.  1.
         21    1    1    2  505  501  0.33122060664E+02  0.80785553936E+02  0.22347790903E+03  0.23992864034E+03  0.00000000000E+00 0.  1.
          2    1    1    2  501    0 -0.10125719087E+03 -0.30019355398E+02  0.65091530308E+03  0.65942771567E+03  0.00000000000E+00 0. -1.
<scales pt_clust_3="46.32879" pt_clust_4="46.24538" pt_clust_5="81.27650" pt_clust_6="14000.00000"></scales>
<clustering>
<clus scale="   46.245">  1  4  2 -1</clus>
<clus scale="   46.329">  2  3  1 -1</clus>
<clus scale="   81.276">  2  5  1 -1</clus>
<clus scale="   46.329">  2  3  1 -1</clus>
</clustering>
</event>
<event>
 6    0  0.6851428E+002  0.1708476E+03  0.7546771E-02  0.1176967E+00
         21   -1    0    0  504  502  0.00000000000E+00  0.00000000000E+00  0.20025723314E+02  0.20025723314E+02  0.00000000000E+00 0.  1.
          1   -1    0    0  503    0 -0.00000000000E+00 -0.00000000000E+00 -0.27031432277E+04  0.27031432277E+04  0.00000000000E+00 0.  1.
         21    1    1    2  503  505 -0.14496986369E+03  0.52063160444E+02 -0.11582368864E+04  0.11684346448E+04  0.00000000000E+00 0.  1.
         21    1    1    2  504  501 -0.39315721202E+02  0.20870966543E+02 -0.90582054132E+02  0.10092785398E+03  0.00000000000E+00 0.  1.
         21    1    1    2  505  502  0.15975044919E+02  0.29598354430E+02 -0.11328883004E+03  0.11817623981E+03  0.00000000000E+00 0.  1.
          1    1    1    2  501    0  0.16831053997E+03 -0.10253248142E+03 -0.13210097338E+04  0.13356302125E+04  0.00000000000E+00 0.  1.
<scales pt_clust_3="170.84764" pt_clust_4="45.53211" pt_clust_5="33.63428" pt_clust_6="14000.00000"></scales>
<clustering>
<clus scale="   33.634">  1  5  2 -1</clus>
<clus scale="   45.532">  1  4  2 -1</clus>
<clus scale="  170.848">  2  3  1 -1</clus>
<clus scale="   33.634">  1  3  2 -1</clus>
</clustering>
</event>
<event>
 6    0  0.6851428E+002  0.1014144E+03  0.7546771E-02  0.1277350E+00
         21   -1    0    0  504  502  0.00000000000E+00  0.00000000000E+00  0.11361246013E+03  0.11361246013E+03  0.00000000000E+00 0. -1.
         -1   -1    0    0    0  501 -0.00000000000E+00 -0.00000000000E+00 -0.10972941458E+04  0.10972941458E+04  0.00000000000E+00 0.  1.
         21    1    1    2  503  502  0.10991902344E+02  0.28651448804E+02  0.11386052791E+02  0.32731783237E+02  0.00000000000E+00 0.  1.
         21    1    1    2  504  501  0.11362376028E+03  0.22705772601E+02  0.11933165410E+01  0.11587637815E+03  0.00000000000E+00 0. -1.
         21    1    1    2  505  503 -0.87802908463E+02  0.19396980930E+01 -0.28443191941E+02  0.92315374294E+02  0.00000000000E+00 0. -1.
         -1    1    1    2    0  505 -0.36812754158E+02 -0.53296919498E+02 -0.96781786308E+03  0.96998307026E+03  0.00000000000E+00 0.  1.
<scales pt_clust_3="30.68758" pt_clust_4="101.41438" pt_clust_5="14000.00000" pt_clust_6="64.42196"></scales>
<clustering>
<clus scale="   30.688">  1  3  2 -1</clus>
<clus scale="   64.422">  2  6  1 -1</clus>
<clus scale="  101.414">  2  4  1 -1</clus>
<clus scale="   30.688">  1  3  2 -1</clus>
</clustering>
</event>
<event>
 6    0  0.6851428E+002  0.8437598E+02  0.7546771E-02  0.1317073E+00
         21   -1    0    0  503  502  0.00000000000E+00  0.00000000000E+00  0.53893842209E+03  0.53893842209E+03  0.00000000000E+00 0. -1.
          1   -1    0    0  505    0 -0.00000000000E+00 -0.00000000000E+00 -0.56564879596E+03  0.56564879596E+03  0.00000000000E+00 0. -1.
         21    1    1    2  503  501 -0.12249170293E+03  0.60036523803E+01  0.17580725260E+03  0.21435589844E+03  0.00000000000E+00 0. -1.
         21    1    1    2  504  502  0.18273171533E+02  0.26034604419E+02  0.26556628748E+03  0.26746431999E+03  0.00000000000E+00 0. -1.
         21    1    1    2  505  504  0.56915961044E+02 -0.12718081669E+02  0.64949374922E+02  0.87290306024E+02  0.00000000000E+00 0. -1.
          1    1    1    2  501    0  0.47302570357E+02 -0.19320175130E+02 -0.53303328887E+03  0.53547669358E+03  0.00000000000E+00 0. -1.
<scales pt_clust_3="84.37598" pt_clust_4="31.80738" pt_clust_5="14000.00000" pt_clust_6="51.12792"></scales>
<clustering>
<clus scale="   31.807">  1  4  2 -1</clus>
<clus scale="   51.128">  2  6  1 -1</clus>
<clus scale="   84.376">  2  3  1 -1</clus>
<clus scale="   31.807">  1  3  2 -1</clus>
</clustering>
</event>
<event>
 6    0  0.6851428E+002  0.1030806E+03  0.7546771E-02  0.1273948E+00
          1   -1    0    0  505    0 -0.00000000000E+00  0.00000000000E+00  0.16372861649E+04  0.16372861649E+04  0.00000000000E+00 0. -1.
         21   -1    0    0  504  502  0.00000000000E+00 -0.00000000000E+00 -0.81600157059E+02  0.81600157059E+02  0.00000000000E+00 0.  1.
         21    1    1    2  503  501 -0.96727294503E+02  0.84972400986E+02  0.83940696619E+02  0.15369619052E+03  0.00000000000E+00 0.  1.
         21    1    1    2  504  503 -0.83252198785E+01 -0.40286935070E+02 -0.23603615568E+02  0.47428652640E+02  0.00000000000E+00 0.  1.
         21    1    1    2  505  502  0.27259913296E+02  0.20960833030E+02  0.21829924952E+02  0.40730885304E+02  0.00000000000E+00 0.  1.
          1    1    1    2  501    0  0.77792601086E+02 -0.65646298946E+02  0.14735190019E+04  0.14770305935E+04  0.00000000000E+00 0. -1.
<scales pt_clust_3="103.08063" pt_clust_4="30.39862" pt_clust_5="34.38691" pt_clust_6="14000.00000"></scales>
<clustering>
<clus scale="   34.387">  2  5  1 -1</clus>
<clus scale="   30.399">  2  4  1 -1</clus>
<clus scale="  103.081">  2  3  1 -1</clus>
<clus scale="   34.387">  2  3  1 -1</clus>
</clustering>
</event>
<event>
 6    0  0.6851428E+002  0.6469572E+02  0.7546771E-02  0.1379120E+00
          2   -1    0    0  502    0 -0.00000000000E+00  0.00000000000E+00  0.18081680256E+04  0.18081680256E+04  0.00000000000E+00 0. -1.
         21   -1    0    0  505  502  0.00000000000E+00 -0.00000000000E+00 -0.18601826748E+03  0.18601826748E+03  0.00000000000E+00 0. -1.
         21    1    1    2  503  504 -0.48661584350E+01  0.74328356518E+02  0.66839010799E+02  0.10007915590E+03  0.00000000000E+00 0.  1.
         21    1    1    2  504  501  0.11489423972E+02 -0.82041612391E+02  0.63726859299E+02  0.10451768091E+03  0.00000000000E+00 0.  1.
         21    1    1    2  505  503  0.31594632927E+02 -0.44158270755E+02 -0.14340061274E+03  0.15333593656E+03  0.00000000000E+00 0. -1.
          2    1    1    2  501    0 -0.38217898465E+02  0.51871526628E+02  0.16349845008E+04  0.16362535197E+04  0.00000000000E+00 0. -1.
<scales pt_clust_3="55.58211" pt_clust_4="14000.00000" pt_clust_5="54.29709" pt_clust_6="64.69572"></scales>
<clustering>
<clus scale="   54.297">  2  5  1 -1</clus>
<clus scale="   55.582">  2  3  1 -1</clus>
<clus scale="   64.696">  1  6  2 -1</clus>
<clus scale="   54.297">  2  3  1 -1</clus>
</clustering>
</event>
<event>
 6    0  0.6851428E+002  0.8535025E+02  0.7546771E-02  0.1314519E+00
         21   -1    0    0  505  502  0.00000000000E+00  0.00000000000E+00  0.60546745017E+02  0.60546745017E+02  0.00000000000E+00 0.  1.
         -3   -1    0    0    0  501 -0.00000000000E+00 -0.00000000000E+00 -0.43798256411E+03  0.43798256411E+03  0.00000000000E+00 0.  1.
         21    1    1    2  503  504 -0.39490125734E+01 -0.61997222243E+02 -0.35772434275E+02  0.71686242195E+02  0.00000000000E+00 0.  1.
         21    1    1    2  504  501  0.29799153987E+02 -0.24447828585E+02 -0.17429491347E+03  0.17850603005E+03  0.00000000000E+00 0.  1.
         21    1    1    2  505  503 -0.34147465094E+02 -0.26271881226E+02  0.37667820242E+01  0.43248696655E+02  0.00000000000E+00 0.  1.
         -3    1    1    2    0  502  0.82973236797E+01  0.11271693205E+03 -0.17113525337E+03  0.20508834023E+03  0.00000000000E+00 0.  1.
<scales pt_clust_3="14000.00000" pt_clust_4="38.54460" pt_clust_5="42.52153" pt_clust_6="85.35025"></scales>
<clustering>
<clus scale="   38.545">  2  4  1 -1</clus>
<clus scale="   42.522">  1  5  2 -1</clus>
<clus scale="   85.350">  2  6  1 -1</clus>
<clus scale="   42.522">  1  3  2 -1</clus>
</clustering>
</event>
<event>
 6    0  0.6851428E+002  0.1916789E+03  0.7546771E-02  0.1156956E+00
         21   -1    0    0  504  502  0.00000000000E+00  0.00000000000E+00  0.18508259475E+03  0.18508259475E+03  0.00000000000E+00 0.  1.
          2   -1    0    0  503    0 -0.00000000000E+00 -0.00000000000E+00 -0.20944507324E+04  0.20944507324E+04  0.00000000000E+00 0. -1.
         21    1    1    2  503  502 -0.26598019288E+02 -0.34393980220E+02 -0.95477703553E+02  0.10491135487E+03  0.00000000000E+00 0. -1.
         21    1    1    2  504  505  0.55329234209E+02  0.17558537040E+03  0.12949543489E+03  0.22507912856E+03  0.00000000000E+00 0.  1.
         21    1    1    2  505  501 -0.24855136397E+02 -0.58969326040E+02 -0.54651887001E+03  0.55025270058E+03  0.00000000000E+00 0. -1.
          2    1    1    2  501    0 -0.38760785244E+01 -0.82222064140E+02 -0.13968669990E+04  0.13992901432E+04  0.00000000000E+00 0. -1.
<scales pt_clust_3="43.47874" pt_clust_4="183.11921" pt_clust_5="47.24132" pt_clust_6="47.24132"></scales>
<clustering>
<clus scale="   43.479">  2  3  1 -1</clus>
<clus scale="   47.241">  5  6 -1 -1</clus>
<clus scale="  183.119">  1  4  2 -1</clus>
<clus scale="  183.119">  1  3  2 -1</clus>
</clustering>
</event>
<event>
 6    0  0.6851428E+002  0.9711408E+02  0.7546771E-02  0.1286484E+00
         21   -1    0    0  504  502  0.00000000000E+00  0.00000000000E+00  0.17165484382E+02  0.17165484382E+02  0.00000000000E+00 0. -1.
          2   -1    0    0  503    0 -0.00000000000E+00 -0.00000000000E+00 -0.28479092389E+04  0.28479092389E+04  0.00000000000E+00 0. -1.
         21    1    1    2  503  502 -0.82086435683E+01  0.85888388866E+02 -0.36565562327E+03  0.37569699493E+03  0.00000000000E+00 0. -1.
         21    1    1    2  504  505  0.32265649917E+02  0.16620091535E+02 -0.74335388151E+02  0.82722726858E+02  0.00000000000E+00 0. -1.
         21    1    1    2  505  501  0.20525206649E+02 -0.10766452165E+03 -0.38230709201E+03  0.39770799079E+03  0.00000000000E+00 0. -1.
          2    1    1    2  501    0 -0.44582212997E+02  0.51560412508E+01 -0.20084456511E+04  0.20089470107E+04  0.00000000000E+00 0. -1.
<scales pt_clust_3="97.11408" pt_clust_4="36.29462" pt_clust_5="14000.00000" pt_clust_6="44.29860"></scales>
<clustering>
<clus scale="   36.295">  1  4  2 -1</clus>
<clus scale="   44.299">  2  6  1 -1</clus>
<clus scale="   97.114">  2  3  1 -1</clus>
<clus scale="   36.295">  1  3  2 -1</clus>
</clustering>
</event>
<event>
 6    0  0.6851428E+002  0.1158128E+03  0.7546771E-02  0.1250169E+00
         21   -1    0    0  505  502  0.00000000000E+00  0.00000000000E+00  0.85990746810E+02  0.85990746810E+02  0.00000000000E+00 0.  1.
          2   -1    0    0  504    0 -0.00000000000E+00 -0.00000000000E+00 -0.22406257563E+04  0.22406257563E+04  0.00000000000E+00 0. -1.
         21    1    1    2  503  501 -0.29753856766E+02  0.25630545777E+02 -0.29486775712E+02  0.49108928019E+02  0.00000000000E+00 0.  1.
         21    1    1    2  504  502  0.49655155567E+02  0.67788653570E+02 -0.37580801414E+02  0.92050272472E+02  0.00000000000E+00 0.  1.
         21    1    1    2  505  503 -0.20993246778E+02  0.25294435871E+02  0.41579248944E+02  0.53003385166E+02  0.00000000000E+00 0.  1.
          2    1    1    2  501    0  0.10919479765E+01 -0.11871363522E+03 -0.21291466813E+04  0.21324539174E+04  0.00000000000E+00 0. -1.
<scales pt_clust_3="47.50891" pt_clust_4="115.81279" pt_clust_5="32.87134" pt_clust_6="14000.00000"></scales>
<clustering>
<clus scale="   32.871">  1  5  2 -1</clus>
<clus scale="   47.509">  1  3  2 -1</clus>
<clus scale="  115.813">  1  4  2 -1</clus>
<clus scale="   32.871">  1  3  2 -1</clus>
</clustering>
</event>
<event>
 6    0  0.6851428E+002  0.1136778E+03  0.7546771E-02  0.1253907E+00
         21   -1    0    0  503  502  0.00000000000E+00  0.00000000000E+00  0.10850644114E+04  0.10850644114E+04  0.00000000000E+00 0. -1.
          3   -1    0    0  505    0 -0.00000000000E+00 -0.00000000000E+00 -0.28725707528E+03  0.28725707528E+03  0.00000000000E+00 0.  1.
         21    1    1    2  503  504 -0.12269216375E+02 -0.68529083810E+02  0.26285090027E+03  0.27191425996E+03  0.00000000000E+00 0. -1.
         21    1    1    2  504  501 -0.51371537402E+02  0.84150222659E+02  0.72960495343E+03  0.73623615974E+03  0.00000000000E+00 0. -1.
         21    1    1    2  505  502 -0.47055134450E+02  0.13159940097E+02  0.64492551716E+02  0.80911426439E+02  0.00000000000E+00 0. -1.
          3    1    1    2  501    0  0.11069588823E+03 -0.28781078946E+02 -0.25914106929E+03  0.28325964055E+03  0.00000000000E+00 0.  1.
<scales pt_clust_3="69.58369" pt_clust_4="14000.00000" pt_clust_5="48.86072" pt_clust_6="113.67781"></scales>
<clustering>
<clus scale="   48.861">  1  5  2 -1</clus>
<clus scale="   69.584">  1  3  2 -1</clus>
<clus scale="  113.678">  2  6  1 -1</clus>
<clus scale="   48.861">  1  3  2 -1</clus>
</clustering>
</event>
<event>
 6    0  0.6851428E+002  0.1226075E+03  0.7546771E-02  0.1238856E+00
          1   -1    0    0  504    0 -0.00000000000E+00  0.00000000000E+00  0.24303488177E+04  0.24303488177E+04  0.00000000000E+00 0. -1.
         21   -1    0    0  503  502  0.00000000000E+00 -0.00000000000E+00 -0.48027111282E+02  0.48027111282E+02  0.00000000000E+00 0. -1.
         21    1    1    2  503  501 -0.33881009807E+02 -0.36307206137E+01 -0.11973353821E+02  0.36117394139E+02  0.00000000000E+00 0. -1.
         21    1    1    2  504  505 -0.36681254177E+02 -0.72027591310E+02  0.15495668972E+03  0.17477146222E+03  0.00000000000E+00 0. -1.
         21    1    1    2  505  502  0.27331035996E+02 -0.47997396757E+02  0.50833116414E+02  0.75064914230E+02  0.00000000000E+00 0. -1.
          1    1    1    2  501    0  0.43231227988E+02  0.12365570868E+03  0.21885052541E+04  0.21924221584E+04  0.00000000000E+00 0. -1.
<scales pt_clust_3="34.07499" pt_clust_4="14000.00000" pt_clust_5="50.86768" pt_clust_6="122.60747"></scales>
<clustering>
<clus scale="   34.075">  2  3  1 -1</clus>
<clus scale="   50.868">  2  5  1 -1</clus>
<clus scale="  122.607">  1  6  2 -1</clus>
<clus scale="   34.075">  2  3  1 -1</clus>
</clustering>
</event>
<event>
 6    0  0.6851428E+002  0.9119559E+02  0.7546771E-02  0.1299982E+00
         21   -1    0    0  504  502  0.00000000000E+00  0.00000000000E+00  0.96656024040E+02  0.96656024040E+02  0.00000000000E+00 0. -1.
          2   -1    0    0  505    0 -0.00000000000E+00 -0.00000000000E+00 -0.97686729755E+03  0.97686729755E+03  0.00000000000E+00 0. -1.
         21    1    1    2  503  502  0.67457856309E+01  0.77948933472E+02 -0.12107775680E+03  0.14415743146E+03  0.00000000000E+00 0.  1.
         21    1    1    2  504  501  0.31512381893E+02 -0.89770343890E+02  0.54062277445E+02  0.10942794295E+03  0.00000000000E+00 0. -1.
         21    1    1    2  505  503 -0.10527558667E+02 -0.41569797872E+02 -0.41718750629E+03  0.41938561372E+03  0.00000000000E+00 0. -1.
          2    1    1    2  501    0 -0.27730608857E+02  0.53391208290E+02 -0.39600828787E+03  0.40055233347E+03  0.00000000000E+00 0. -1.
<scales pt_clust_3="91.19559" pt_clust_4="14000.00000" pt_clust_5="42.88214" pt_clust_6="42.49420"></scales>
<clustering>
<clus scale="   42.882">  2  5  1 -1</clus>
<clus scale="   42.494">  2  6  1 -1</clus>
<clus scale="   91.196">  2  3  1 -1</clus>
<clus scale="   91.196">  1  3  2 -1</clus>
</clustering>
</event>
<event>
 6    0  0.6851428E+002  0.1621746E+03  0.7546771E-02  0.1186263E+00
          2   -1    0    0  503    0 -0.00000000000E+00  0.00000000000E+00  0.37782862728E+03  0.37782862728E+03  0.00000000000E+00 0.  1.
         21   -1    0    0  504  502  0.00000000000E+00 -0.00000000000E+00 -0.81495544473E+03  0.81495544473E+03  0.00000000000E+00 0. -1.
         21    1    1    2  503  505  0.69517403752E+02 -0.73422991069E+02 -0.35845968153E+03  0.37244724234E+03  0.00000000000E+00 0. -1.
         21    1    1    2  504  501 -0.18537109717E+03 -0.41776421312E+02 -0.15782263807E+03  0.24701355859E+03  0.00000000000E+00 0. -1.
         21    1    1    2  505  502  0.62313857080E+02 -0.15868975185E+02 -0.22704465793E+03  0.23597482462E+03  0.00000000000E+00 0. -1.
          2    1    1    2  501    0  0.53539836334E+02  0.13106838757E+03  0.30620016008E+03  0.33734844646E+03  0.00000000000E+00 0.  1.
<scales pt_clust_3="35.74888" pt_clust_4="155.85592" pt_clust_5="35.74888" pt_clust_6="141.58191"></scales>
<clustering>
<clus scale="   35.749">  3  5 -1 -1</clus>
<clus scale="  141.582">  1  6  2 -1</clus>
<clus scale="  155.856">  1  4  2 -1</clus>
<clus scale="  162.175">  2  3  1 -1</clus>
</clustering>
</event>
<event>
 6    0  0.6851428E+002  0.1094548E+03  0.7546771E-02  0.1261583E+00
          2   -1    0    0  504    0 -0.00000000000E+00  0.00000000000E+00  0.19270358718E+03  0.19270358718E+03  0.00000000000E+00 0.  1.
         21   -1    0    0  503  502  0.00000000000E+00 -0.00000000000E+00 -0.21952054227E+03  0.21952054227E+03  0.00000000000E+00 0.  1.
         21    1    1    2  503  501 -0.42976999471E+02 -0.35054621621E+02 -0.84137461961E+01  0.56094920497E+02  0.00000000000E+00 0. -1.
         21    1    1    2  504  505  0.64712837506E+02 -0.10363776038E+03  0.54420520032E+02  0.13375398953E+03  0.00000000000E+00 0.  1.
         21    1    1    2  505  502 -0.10176312820E+02  0.10847974947E+03 -0.12196358973E+03  0.16354366575E+03  0.00000000000E+00 0.  1.
          2    1    1    2  501    0 -0.11559525216E+02  0.30212632529E+02  0.49139860802E+02  0.58831553670E+02  0.00000000000E+00 0.  1.
<scales pt_clust_3="53.97666" pt_clust_4="109.45480" pt_clust_5="14000.00000" pt_clust_6="32.34851"></scales>
<clustering>
<clus scale="   32.349">  1  6  2 -1</clus>
<clus scale="   53.977">  1  3  2 -1</clus>
<clus scale="  109.455">  1  4  2 -1</clus>
<clus scale="  109.455">  2  3  1 -1</clus>
</clustering>
</event>
<event>
 6    0  0.6851428E+002  0.2023706E+03  0.7546771E-02  0.1147754E+00
         -4   -1    0    0    0  501 -0.00000000000E+00  0.00000000000E+00  0.19053963616E+04  0.19053963616E+04  0.00000000000E+00 0. -1.
         21   -1    0    0  505  502  0.00000000000E+00 -0.00000000000E+00 -0.70285144730E+02  0.70285144730E+02  0.00000000000E+00 0.  1.
         21    1    1    2  503  504 -0.17406499308E+03 -0.20837615639E+02  0.23156895295E+03  0.29044277924E+03  0.00000000000E+00 0.  1.
         21    1    1    2  504  502 -0.24937703388E+01 -0.40774667182E+02  0.52099992665E+02  0.66205752092E+02  0.00000000000E+00 0. -1.
         21    1    1    2  505  501  0.23514840532E+03  0.48776796383E+02  0.40374947435E+03  0.46977397376E+03  0.00000000000E+00 0.  1.
         -4    1    1    2    0  503 -0.58589641901E+02  0.12835486438E+02  0.11476927969E+04  0.11492590012E+04  0.00000000000E+00 0. -1.
<scales pt_clust_3="14000.00000" pt_clust_4="40.85086" pt_clust_5="202.37055" pt_clust_6="59.90332"></scales>
<clustering>
<clus scale="   40.851">  2  4  1 -1</clus>
<clus scale="   59.903">  1  6  2 -1</clus>
<clus scale="  202.371">  1  5  2 -1</clus>
<clus scale="   40.851">  2  3  1 -1</clus>
</clustering>
</event>
<event>
 6    0  0.6851428E+002  0.1091368E+03  0.7546771E-02  0.1262177E+00
          2   -1    0    0  504    0 -0.00000000000E+00  0.00000000000E+00  0.56185970367E+03  0.56185970367E+03  0.00000000000E+00 0. -1.
         21   -1    0    0  505  502  0.00000000000E+00 -0.00000000000E+00 -0.29676671903E+03  0.29676671903E+03  0.00000000000E+00 0. -1.
         21    1    1    2  503  501 -0.97665114053E+02  0.71094816390E+02 -0.45683081716E+02  0.12915065379E+03  0.00000000000E+00 0. -1.
         21    1    1    2  504  502  0.25791777340E+02 -0.12888128458E+03 -0.87871987912E+02  0.15810467278E+03  0.00000000000E+00 0. -1.
         21    1    1    2  505  503  0.29483344246E+02  0.75412422289E+02 -0.65999171743E+02  0.10446143640E+03  0.00000000000E+00 0. -1.
          2    1    1    2  501    0  0.42389992467E+02 -0.17625954094E+02  0.46464722601E+03  0.46690965974E+03  0.00000000000E+00 0. -1.
<scales pt_clust_3="109.13679" pt_clust_4="14000.00000" pt_clust_5="81.29541" pt_clust_6="45.90845"></scales>
<clustering>
<clus scale="   45.908">  1  6  2 -1</clus>
<clus scale="   81.295">  2  5  1 -1</clus>
<clus scale="  109.137">  1  3  2 -1</clus>
<clus scale="   81.295">  2  3  1 -1</clus>
</clustering>
</event>
<event>
 6    0  0.6851428E+002  0.7822964E+02  0.7546771E-02  0.1334152E+00
         21   -1    0    0  505  502  0.00000000000E+00  0.00000000000E+00  0.22322608453E+03  0.22322608453E+03  0.00000000000E+00 0. -1.
         -3   -1    0    0    0  501 -0.00000000000E+00 -0.00000000000E+00 -0.34746468361E+03  0.34746468361E+03  0.00000000000E+00 0.  1.
         21    1    1    2  503  501 -0.33092995705E+02 -0.12068371597E+01 -0.76945898908E+02  0.83769172011E+02  0.00000000000E+00 0. -1.
         21    1    1    2  504  502 -0.10801536318E+03 -0.41861660916E+02  0.23038587313E+02  0.11811220870E+03  0.00000000000E+00 0. -1.
         21    1    1    2  505  503  0.47742234711E+02  0.54876540323E+02  0.12916057179E+03  0.14823362964E+03  0.00000000000E+00 0. -1.
         -3    1    1    2    0  504  0.93366124177E+02 -0.11808042247E+02 -0.19949185927E+03  0.22057575778E+03  0.00000000000E+00 0.  1.
<scales pt_clust_3="33.11499" pt_clust_4="78.22964" pt_clust_5="14000.00000" pt_clust_6="68.54181"></scales>
<clustering>
<clus scale="   33.115">  2  3  1 -1</clus>
<clus scale="   68.542">  2  6  1 -1</clus>
<clus scale="   78.230">  2  4  1 -1</clus>
<clus scale="   78.230">  1  3  2 -1</clus>
</clustering>
</event>
<event>
 6    0  0.6851428E+002  0.1881145E+03  0.7546771E-02  0.1160173E+00
         -1   -1    0    0    0  501 -0.00000000000E+00  0.00000000000E+00  0.34324664426E+03  0.34324664426E+03  0.00000000000E+00 0. -1.
         21   -1    0    0  504  502  0.00000000000E+00 -0.00000000000E+00 -0.10705451233E+03  0.10705451233E+03  0.00000000000E+00 0. -1.
         21    1    1    2  503  502 -0.98057175502E+02 -0.94012310493E+02  0.93963383047E+02  0.16517457899E+03  0.00000000000E+00 0. -1.
         21    1    1    2  504  505  0.46906508641E+02  0.10548055452E+03  0.48974339360E+02  0.12539877930E+03  0.00000000000E+00 0. -1.
         21    1    1    2  505  501  0.62061848006E+02  0.33228897773E+02  0.19931457941E+02  0.73164852496E+02  0.00000000000E+00 0. -1.
         -1    1    1    2    0  503 -0.10911181145E+02 -0.44697141795E+02  0.73322951575E+02  0.86562945804E+02  0.00000000000E+00 0. -1.
<scales pt_clust_3="38.04112" pt_clust_4="186.22435" pt_clust_5="46.62690" pt_clust_6="38.04112"></scales>
<clustering>
<clus scale="   38.041">  3  6 -1 -1</clus>
<clus scale="   46.627">  4  5 -1 -1</clus>
<clus scale="  186.224">  2  4  1 -1</clus>
<clus scale="  186.224">  2  3  1 -1</clus>
</clustering>
</event>
<event>
 6    0  0.6851428E+002  0.9892674E+02  0.7546771E-02  0.1282569E+00
          2   -1    0    0  503    0 -0.00000000000E+00  0.00000000000E+00  0.15164228478E+04  0.15164228478E+04  0.00000000000E+00 0.  1.
         21   -1    0    0  504  502  0.00000000000E+00 -0.00000000000E+00 -0.33788288237E+02  0.33788288237E+02  0.00000000000E+00 0.  1.
         21    1    1    2  503  505  0.60775941815E+02 -0.34726070167E+02  0.66186205097E+03  0.66555314556E+03  0.00000000000E+00 0.  1.
         21    1    1    2  504  501 -0.97011233054E+02  0.12623197049E+02  0.11582500827E+03  0.15161120335E+03  0.00000000000E+00 0.  1.
         21    1    1    2  505  502  0.10229508949E+03  0.43054392239E+02  0.25946221667E+03  0.28220313235E+03  0.00000000000E+00 0.  1.
          2    1    1    2  501    0 -0.66059798253E+02 -0.20951519121E+02  0.44548528365E+03  0.45084365477E+03  0.00000000000E+00 0.  1.
<scales pt_clust_3="51.66052" pt_clust_4="98.92674" pt_clust_5="14000.00000" pt_clust_6="69.30269"></scales>
<clustering>
<clus scale="   69.303">  1  6  2 -1</clus>
<clus scale="   51.661">  1  3  2 -1</clus>
<clus scale="   98.927">  2  4  1 -1</clus>
<clus scale="   98.927">  2  3  1 -1</clus>
</clustering>
</event>
<event>
 6    0  0.6851428E+002  0.1242159E+03  0.7546771E-02  0.1236300E+00
         21   -1    0    0  504  502  0.00000000000E+00  0.00000000000E+00  0.35184570726E+03  0.35184570726E+03  0.00000000000E+00 0.  1.
          2   -1    0    0  505    0 -0.00000000000E+00 -0.00000000000E+00 -0.24599220205E+04  0.24599220205E+04  0.00000000000E+00 0.  1.
         21    1    1    2  503  502 -0.41393873259E+02 -0.22986142944E+02  0.10579755871E+03  0.11590918402E+03  0.00000000000E+00 0.  1.
         21    1    1    2  504  501  0.10790948953E+03 -0.18057358709E+01 -0.96991613673E+02  0.14510372751E+03  0.00000000000E+00 0.  1.
         21    1    1    2  505  503 -0.87533776668E+02  0.54668592998E+02  0.20451031657E+03  0.22907484956E+03  0.00000000000E+00 0.  1.
          2    1    1    2  501    0  0.21018160394E+02 -0.29876714184E+02 -0.23213925748E+04  0.23216799666E+04  0.00000000000E+00 0.  1.
<scales pt_clust_3="47.22505" pt_clust_4="14000.00000" pt_clust_5="124.21595" pt_clust_6="36.52918"></scales>
<clustering>
<clus scale="   36.529">  2  6  1 -1</clus>
<clus scale="   47.225">  1  3  2 -1</clus>
<clus scale="  124.216">  1  5  2 -1</clus>
<clus scale="   47.225">  1  3  2 -1</clus>
</clustering>
</event>
<event>
 6    0  0.6851428E+002  0.1257184E+03  0.7546771E-02  0.1233951E+00
         21   -1    0    0  503  502  0.00000000000E+00  0.00000000000E+00  0.33799577148E+02  0.33799577148E+02  0.00000000000E+00 0. -1.
         -3   -1    0    0    0  501 -0.00000000000E+00 -0.00000000000E+00 -0.10312504339E+04  0.10312504339E+04  0.00000000000E+00 0. -1.
         21    1    1    2  503  505  0.62154136037E+02  0.43056876932E+02 -0.15886282268E+03  0.17593870441E+03  0.00000000000E+00 0. -1.
         21    1    1    2  504  502 -0.58809406016E+02 -0.72482752848E+02 -0.12574547509E+03  0.15660210791E+03  0.00000000000E+00 0. -1.
         21    1    1    2  505  501  0.23338874019E+02  0.88420727609E+02 -0.27259239034E+03  0.28752311104E+03  0.00000000000E+00 0.  1.
         -3    1    1    2    0  504 -0.26683604040E+02 -0.58994851693E+02 -0.44025016865E+03  0.44498608770E+03  0.00000000000E+00 0. -1.
<scales pt_clust_3="57.85150" pt_clust_4="108.43094" pt_clust_5="57.85150" pt_clust_6="64.74880"></scales>
<clustering>
<clus scale="   57.852">  3  5 -1 -1</clus>
<clus scale="   64.749">  2  6  1 -1</clus>
<clus scale="  108.431">  1  4  2 -1</clus>
<clus scale="  108.431">  1  3  2 -1</clus>
</clustering>
</event>
<event>
 6    0  0.6851428E+002  0.2193791E+03  0.7546771E-02  0.1134347E+00
         21   -1    0    0  503  502  0.00000000000E+00  0.00000000000E+00  0.27952695178E+03  0.27952695178E+03  0.00000000000E+00 0. -1.
          1   -1    0    0  505    0 -0.00000000000E+00 -0.00000000000E+00 -0.19023814611E+04  0.19023814611E+04  0.00000000000E+00 0.  1.
         21    1    1    2  503  501 -0.13247392603E+03  0.56537142740E+02 -0.13290412808E+03  0.19598289938E+03  0.00000000000E+00 0. -1.
         21    1    1    2  504  502  0.25305134801E+03 -0.50716489056E+02  0.12145405738E+03  0.28523364992E+03  0.00000000000E+00 0. -1.
         21    1    1    2  505  504 -0.72264456102E+02 -0.10845447312E+03 -0.57152349397E+02  0.14230571105E+03  0.00000000000E+00 0. -1.
          1    1    1    2  501    0 -0.48312965881E+02  0.10263381943E+03 -0.15542520893E+04  0.15583861526E+04  0.00000000000E+00 0.  1.
<scales pt_clust_3="14000.00000" pt_clust_4="219.37914" pt_clust_5="116.83272" pt_clust_6="113.43652"></scales>
<clustering>
<clus scale="  113.437">  2  6  1 -1</clus>
<clus scale="  116.833">  2  5  1 -1</clus>
<clus scale="  219.379">  1  4  2 -1</clus>
<clus scale="  219.379">  1  3  2 -1</clus>
</clustering>
</event>
<event>
 6    0  0.6851428E+002  0.1909412E+03  0.7546771E-02  0.1157615E+00
         21   -1    0    0  501  502  0.00000000000E+00  0.00000000000E+00  0.29378032368E+03  0.29378032368E+03  0.00000000000E+00 0. -1.
          2   -1    0    0  505    0 -0.00000000000E+00 -0.00000000000E+00 -0.50952931428E+03  0.50952931428E+03  0.00000000000E+00 0.  1.
         21    1    1    2  503  504  0.12127311157E+02  0.69748941286E+02  0.17095408277E+02  0.72830209876E+02  0.00000000000E+00 0.  1.
         21    1    1    2  504  502 -0.43900871705E+02  0.28466557979E+02  0.12271994362E+03  0.13340845559E+03  0.00000000000E+00 0. -1.
         21    1    1    2  505  503  0.47713140558E+01  0.88651335274E+02  0.81783783452E+02  0.12070796129E+03  0.00000000000E+00 0. -1.
          2    1    1    2  501    0  0.27002246493E+02 -0.18686683454E+03 -0.43734812595E+03  0.47636301120E+03  0.00000000000E+00 0.  1.
<scales pt_clust_3="42.86082" pt_clust_4="52.32238" pt_clust_5="42.86082" pt_clust_6="184.81021"></scales>
<clustering>
<clus scale="   42.861">  3  5 -1 -1</clus>
<clus scale="   52.322">  1  4  2 -1</clus>
<clus scale="  184.810">  2  6  1 -1</clus>
<clus scale="   52.322">  1  3  2 -1</clus>
</clustering>
</event>
<event>
 6    0  0.6851428E+002  0.8328556E+02  0.7546771E-02  0.1319978E+00
          2   -1    0    0  503    0 -0.00000000000E+00  0.00000000000E+00  0.11091137195E+03  0.11091137195E+03  0.00000000000E+00 0.  1.
         21   -1    0    0  504  502  0.00000000000E+00 -0.00000000000E+00 -0.31343492114E+03  0.31343492114E+03  0.00000000000E+00 0.  1.
         21    1    1    2  503  502 -0.11966371460E+01 -0.53122187201E+02 -0.23884375327E+02  0.58256863100E+02  0.00000000000E+00 0. -1.
         21    1    1    2  504  505  0.16273774710E+02  0.37600495142E+02 -0.36007317035E+02  0.54545025972E+02  0.00000000000E+00 0.  1.
         21    1    1    2  505  501  0.69731462721E+02  0.14661304151E+02 -0.19788352697E+03  0.21032194603E+03  0.00000000000E+00 0.  1.
          2    1    1    2  501    0 -0.84808600285E+02  0.86038790804E+00  0.55251670140E+02  0.10122245800E+03  0.00000000000E+00 0.  1.
<scales pt_clust_3="47.38110" pt_clust_4="40.97112" pt_clust_5="83.28556" pt_clust_6="14000.00000"></scales>
<clustering>
<clus scale="   40.971">  2  4  1 -1</clus>
<clus scale="   47.381">  2  3  1 -1</clus>
<clus scale="   83.286">  2  5  1 -1</clus>
<clus scale="   40.971">  2  3  1 -1</clus>
</clustering>
</event>
<event>
 6    0  0.6851428E+002  0.4906234E+03  0.7546771E-02  0.1016256E+00
          1   -1    0    0  503    0 -0.00000000000E+00  0.00000000000E+00  0.22526356803E+04  0.22526356803E+04  0.00000000000E+00 0.  1.
         21   -1    0    0  504  502  0.00000000000E+00 -0.00000000000E+00 -0.97400355676E+03  0.97400355676E+03  0.00000000000E+00 0.  1.
         21    1    1    2  503  502 -0.42440751220E+03  0.22719592808E+03 -0.58357995531E+03  0.75650861885E+03  0.00000000000E+00 0.  1.
         21    1    1    2  504  505  0.19126468865E+02  0.33820513630E+02 -0.17117396015E+03  0.17552827005E+03  0.00000000000E+00 0.  1.
         21    1    1    2  505  501 -0.76714109029E+02 -0.16298199745E+03 -0.21735242008E+02  0.18144036696E+03  0.00000000000E+00 0.  1.
          1    1    1    2  501    0  0.48199515236E+03 -0.98034444264E+02  0.20551212810E+04  0.21131619812E+04  0.00000000000E+00 0.  1.
<scales pt_clust_3="490.62337" pt_clust_4="38.85420" pt_clust_5="175.21809" pt_clust_6="14000.00000"></scales>
<clustering>
<clus scale="   38.854">  2  4  1 -1</clus>
<clus scale="  175.218">  2  5  1 -1</clus>
<clus scale="  490.623">  2  3  1 -1</clus>
<clus scale="   38.854">  2  3  1 -1</clus>
</clustering>
</event>
<event>
 6    0  0.6851428E+002  0.2527710E+03  0.7546771E-02  0.1111566E+00
          2   -1    0    0  505    0 -0.00000000000E+00  0.00000000000E+00  0.62254193634E+03  0.62254193634E+03  0.00000000000E+00 0. -1.
         21   -1    0    0  501  502  0.00000000000E+00 -0.00000000000E+00 -0.16957549943E+03  0.16957549943E+03  0.00000000000E+00 0. -1.
         21    1    1    2  503  502  0.14535617049E+02  0.32044108651E+02 -0.43706759972E+02  0.56110515320E+02  0.00000000000E+00 0. -1.
         21    1    1    2  504  503  0.12035163017E+03 -0.90301351012E+02  0.84895719937E+01  0.15070143235E+03  0.00000000000E+00 0. -1.
         21    1    1    2  505  504  0.45418944450E+02 -0.77992938002E+02  0.90007765032E+02  0.12746441330E+03  0.00000000000E+00 0. -1.
          2    1    1    2  501    0 -0.18030619167E+03  0.13625018036E+03  0.39817585986E+03  0.45784107480E+03  0.00000000000E+00 0. -1.
<scales pt_clust_3="35.18677" pt_clust_4="83.80503" pt_clust_5="83.80503" pt_clust_6="228.08223"></scales>
<clustering>
<clus scale="   35.187">  2  3  1 -1</clus>
<clus scale="   83.805">  4  5 -1 -1</clus>
<clus scale="  228.082">  1  6  2 -1</clus>
<clus scale="   35.187">  2  3  1 -1</clus>
</clustering>
</event>
<event>
 6    0  0.6851428E+002  0.2205183E+03  0.7546771E-02  0.1133497E+00
          2   -1    0    0  505    0 -0.00000000000E+00  0.00000000000E+00  0.11628090024E+04  0.11628090024E+04  0.00000000000E+00 0.  1.
         21   -1    0    0  503  502  0.00000000000E+00 -0.00000000000E+00 -0.75228310306E+03  0.75228310306E+03  0.00000000000E+00 0.  1.
         21    1    1    2  503  501  0.13310535684E+03  0.10160117456E+03 -0.44523250752E+03  0.47568037635E+03  0.00000000000E+00 0.  1.
         21    1    1    2  504  502  0.55927510282E+02 -0.22188255708E+03 -0.16573710461E+03  0.28253945457E+03  0.00000000000E+00 0.  1.
         21    1    1    2  505  504 -0.92818305857E+02 -0.19021763933E+03  0.31922425299E+03  0.38301711700E+03  0.00000000000E+00 0.  1.
          2    1    1    2  501    0 -0.96214561263E+02  0.31049902185E+03  0.70227125848E+03  0.77385515755E+03  0.00000000000E+00 0.  1.
<scales pt_clust_3="167.45099" pt_clust_4="220.51830" pt_clust_5="195.46753" pt_clust_6="14000.00000"></scales>
<clustering>
<clus scale="  167.451">  2  3  1 -1</clus>
<clus scale="  195.468">  1  5  2 -1</clus>
<clus scale="  220.518">  2  4  1 -1</clus>
<clus scale="  167.451">  2  3  1 -1</clus>
</clustering>
</event>
<event>
 6    0  0.6851428E+002  0.2403429E+03  0.7546771E-02  0.1119565E+00
         21   -1    0    0  504  502  0.00000000000E+00  0.00000000000E+00  0.96291069920E+02  0.96291069920E+02  0.00000000000E+00 0.  1.
          1   -1    0    0  503    0 -0.00000000000E+00 -0.00000000000E+00 -0.87461538925E+03  0.87461538925E+03  0.00000000000E+00 0. -1.
         21    1    1    2  503  502  0.27961598748E+02  0.20990804339E+02 -0.12219625682E+02  0.37037604177E+02  0.00000000000E+00 0. -1.
         21    1    1    2  504  505 -0.10913527069E+03  0.97736209407E+02 -0.67450350895E+02  0.16128367485E+03  0.00000000000E+00 0.  1.
         21    1    1    2  505  501 -0.59716380004E+02  0.63128319026E+02 -0.10738816089E+03  0.13814285289E+03  0.00000000000E+00 0. -1.
          1    1    1    2  501    0  0.14089005195E+03 -0.18185533277E+03 -0.59126618186E+03  0.63444232725E+03  0.00000000000E+00 0. -1.
<scales pt_clust_3="34.96377" pt_clust_4="53.10840" pt_clust_5="53.10840" pt_clust_6="230.35896"></scales>
<clustering>
<clus scale="   34.964">  1  3  2 -1</clus>
<clus scale="   53.108">  4  5 -1 -1</clus>
<clus scale="  230.359">  2  6  1 -1</clus>
<clus scale="   34.964">  1  3  2 -1</clus>
</clustering>
</event>
<event>
 6    0  0.6851428E+002  0.1215748E+03  0.7546771E-02  0.1240521E+00
          1   -1    0    0  505    0 -0.00000000000E+00  0.00000000000E+00  0.36224553357E+04  0.36224553357E+04  0.00000000000E+00 0.  1.
         21   -1    0    0  504  502  0.00000000000E+00 -0.00000000000E+00 -0.84105373460E+02  0.84105373460E+02  0.00000000000E+00 0.  1.
         21    1    1    2  503  502 -0.52163136693E+01  0.56805955469E+02 -0.59310594186E+02  0.82291391334E+02  0.00000000000E+00 0.  1.
         21    1    1    2  504  501  0.74921837424E+02  0.53704311333E+02  0.17168294527E+03  0.19486525723E+03  0.00000000000E+00 0.  1.
         21    1    1    2  505  503 -0.35449537405E+02 -0.97449424400E+02  0.30184605002E+04  0.30202411909E+04  0.00000000000E+00 0.  1.
          1    1    1    2  501    0 -0.34255986349E+02 -0.13060842402E+02  0.40751711092E+03  0.40916286964E+03  0.00000000000E+00 0.  1.
<scales pt_clust_3="57.00979" pt_clust_4="121.57481" pt_clust_5="14000.00000" pt_clust_6="36.66140"></scales>
<clustering>
<clus scale="   36.661">  1  6  2 -1</clus>
<clus scale="   57.010">  2  3  1 -1</clus>
<clus scale="  121.575">  2  4  1 -1</clus>
<clus scale="   57.010">  2  3  1 -1</clus>
</clustering>
</event>
<event>
 6    0  0.6851428E+002  0.1225140E+03  0.7546771E-02  0.1239006E+00
         21   -1    0    0  504  502  0.00000000000E+00  0.00000000000E+00  0.13168112273E+03  0.13168112273E+03  0.00000000000E+00 0. -1.
          2   -1    0    0  503    0 -0.00000000000E+00 -0.00000000000E+00 -0.27436889549E+04  0.27436889549E+04  0.00000000000E+00 0.  1.
         21    1    1    2  503  502  0.59721295501E+02  0.39041105863E+01 -0.11538022550E+03  0.12997873538E+03  0.00000000000E+00 0.  1.
         21    1    1    2  504  505  0.11769092046E+03  0.47944568533E+02  0.34624623296E+02  0.13171445991E+03  0.00000000000E+00 0. -1.
         21    1    1    2  505  501 -0.11014643884E+03 -0.12725547456E+02 -0.35085840298E+02  0.11629786643E+03  0.00000000000E+00 0. -1.
          2    1    1    2  501    0 -0.67265777125E+02 -0.39123131663E+02 -0.24961663897E+04  0.24973790159E+04  0.00000000000E+00 0.  1.
<scales pt_clust_3="59.84877" pt_clust_4="14000.00000" pt_clust_5="122.51396" pt_clust_6="77.55473"></scales>
<clustering>
<clus scale="   59.849">  1  3  2 -1</clus>
<clus scale="   77.555">  2  6  1 -1</clus>
<clus scale="  122.514">  2  5  1 -1</clus>
<clus scale="   59.849">  1  3  2 -1</clus>
</clustering>
</event>
<event>
 6    0  0.6851428E+002  0.7745895E+02  0.7546771E-02  0.1336421E+00
         21   -1    0    0  504  502  0.00000000000E+00  0.00000000000E+00  0.14316749414E+03  0.14316749414E+03  0.00000000000E+00 0. -1.
         -2   -1    0    0    0  501 -0.00000000000E+00 -0.00000000000E+00 -0.28662795150E+03  0.28662795150E+03  0.00000000000E+00 0. -1.
         21    1    1    2  503  502  0.22527024178E+02 -0.30563110059E+02 -0.41422174761E+02  0.56190453609E+02  0.00000000000E+00 0. -1.
         21    1    1    2  504  505 -0.56108113882E+02 -0.44449599656E+02  0.75700543677E+02  0.10418473816E+03  0.00000000000E+00 0. -1.
         21    1    1    2  505  501  0.57495705395E+02  0.98171483867E+02 -0.29558083624E+02  0.11754606200E+03  0.00000000000E+00 0. -1.
         -2    1    1    2    0  503 -0.23914615691E+02 -0.23158774152E+02 -0.14818074265E+03  0.15187419187E+03  0.00000000000E+00 0. -1.
<scales pt_clust_3="41.27792" pt_clust_4="77.45895" pt_clust_5="14000.00000" pt_clust_6="33.29020"></scales>
<clustering>
<clus scale="   33.290">  2  6  1 -1</clus>
<clus scale="   41.278">  2  3  1 -1</clus>
<clus scale="   77.459">  1  4  2 -1</clus>
<clus scale="   77.459">  1  3  2 -1</clus>
</clustering>
</event>
<event>
 6    0  0.6851428E+002  0.5705015E+02  0.7546771E-02  0.1410645E+00
         -2   -1    0    0    0  501 -0.00000000000E+00  0.00000000000E+00  0.72234895003E+03  0.72234895003E+03  0.00000000000E+00 0.  1.
         21   -1    0    0  504  502  0.00000000000E+00 -0.00000000000E+00 -0.56320313262E+02  0.56320313262E+02  0.00000000000E+00 0.  1.
         21    1    1    2  503  502  0.45115018206E+02  0.36080716606E+01  0.22290153327E+02  0.50450312032E+02  0.00000000000E+00 0.  1.
         21    1    1    2  504  501 -0.56351261486E+02  0.91857553732E+02  0.48986026910E+02  0.11837611956E+03  0.00000000000E+00 0.  1.
         21    1    1    2  505  503 -0.98491982053E+01 -0.44708333509E+02  0.80067454683E+02  0.92231443065E+02  0.00000000000E+00 0.  1.
         -2    1    1    2    0  505  0.21085441486E+02 -0.50757291883E+02  0.51468500185E+03  0.51761138864E+03  0.00000000000E+00 0.  1.
<scales pt_clust_3="45.25907" pt_clust_4="14000.00000" pt_clust_5="44.31587" pt_clust_6="57.05015"></scales>
<clustering>
<clus scale="   45.259">  2  3  1 -1</clus>
<clus scale="   44.316">  2  5  1 -1</clus>
<clus scale="   57.050">  1  6  2 -1</clus>
<clus scale="   45.259">  2  3  1 -1</clus>
</clustering>
</event>
<event>
 6    0  0.6851428E+002  0.1073220E+03  0.7546771E-02  0.1265611E+00
         21   -1    0    0  503  502  0.00000000000E+00  0.00000000000E+00  0.44585225513E+02  0.44585225513E+02  0.00000000000E+00 0.  1.
          4   -1    0    0  504    0 -0.00000000000E+00 -0.00000000000E+00 -0.47369783798E+03  0.47369783798E+03  0.00000000000E+00 0.  1.
         21    1    1    2  503  501  0.23381956408E+02  0.52773521908E+02 -0.34426563466E+02  0.67208249286E+02  0.00000000000E+00 0.  1.
         21    1    1    2  504  505 -0.48533824274E+02  0.10710131765E+01 -0.11065045655E+03  0.12083129852E+03  0.00000000000E+00 0.  1.
         21    1    1    2  505  502 -0.52087216602E+02  0.11354207120E+02 -0.41730240986E+02  0.67700880093E+02  0.00000000000E+00 0.  1.
          4    1    1    2  501    0  0.77239084468E+02 -0.65198742205E+02 -0.24230535147E+03  0.26254263560E+03  0.00000000000E+00 0.  1.
<scales pt_clust_3="57.72140" pt_clust_4="43.15903" pt_clust_5="43.15903" pt_clust_6="97.32671"></scales>
<clustering>
<clus scale="   43.159">  4  5 -1 -1</clus>
<clus scale="   57.721">  1  3  2 -1</clus>
<clus scale="   97.327">  2  6  1 -1</clus>
<clus scale="   57.721">  1  3  2 -1</clus>
</clustering>
</event>
<event>
 6    0  0.6851428E+002  0.8349081E+02  0.7546771E-02  0.1319427E+00
         21   -1    0    0  505  502  0.00000000000E+00  0.00000000000E+00  0.94870103162E+02  0.94870103162E+02  0.00000000000E+00 0.  1.
          1   -1    0    0  504    0 -0.00000000000E+00 -0.00000000000E+00 -0.70617869134E+03  0.70617869134E+03  0.00000000000E+00 0. -1.
         21    1    1    2  503  501  0.59130979048E+02 -0.42099382499E+02 -0.70097822369E+02  0.10090854964E+03  0.00000000000E+00 0. -1.
         21    1    1    2  504  502 -0.10641603230E+03  0.14162859043E+02 -0.28245842138E+03  0.30217167027E+03  0.00000000000E+00 0. -1.
         21    1    1    2  505  503  0.29989068102E+02  0.79193023276E+02  0.40498894334E+02  0.93867137931E+02  0.00000000000E+00 0.  1.
          1    1    1    2  501    0  0.17295985150E+02 -0.51256499820E+02 -0.29925123876E+03  0.30410143666E+03  0.00000000000E+00 0. -1.
<scales pt_clust_3="14000.00000" pt_clust_4="83.49081" pt_clust_5="81.95426" pt_clust_6="54.09602"></scales>
<clustering>
<clus scale="   54.096">  2  6  1 -1</clus>
<clus scale="   81.954">  1  5  2 -1</clus>
<clus scale="   83.491">  2  4  1 -1</clus>
<clus scale="   81.954">  1  3  2 -1</clus>
</clustering>
</event>
<event>
 6    0  0.6851428E+002  0.2331106E+03  0.7546771E-02  0.1124469E+00
         21   -1    0    0  503  502  0.00000000000E+00  0.00000000000E+00  0.68143264301E+03  0.68143264301E+03  0.00000000000E+00 0.  1.
          2   -1    0    0  504    0 -0.00000000000E+00 -0.00000000000E+00 -0.88444017718E+03  0.88444017718E+03  0.00000000000E+00 0.  1.
         21    1    1    2  503  505  0.62172696594E+02  0.49998223446E+01  0.12613113514E+03  0.14071071628E+03  0.00000000000E+00 0.  1.
         21    1    1    2  504  502 -0.25319179417E+03 -0.68125296104E+02  0.36865977543E+03  0.45239050678E+03  0.00000000000E+00 0.  1.
         21    1    1    2  505  501  0.12842110536E+03  0.88229147816E+01  0.10474820818E+03  0.16595785985E+03  0.00000000000E+00 0. -1.
          2    1    1    2  501    0  0.62597992211E+02  0.54302558978E+02 -0.80254665293E+03  0.80681373728E+03  0.00000000000E+00 0.  1.
<scales pt_clust_3="45.23714" pt_clust_4="223.86887" pt_clust_5="45.23714" pt_clust_6="82.86903"></scales>
<clustering>
<clus scale="   45.237">  3  5 -1 -1</clus>
<clus scale="   82.869">  2  6  1 -1</clus>
<clus scale="  223.869">  2  4  1 -1</clus>
<clus scale="  233.111">  1  3  2 -1</clus>
</clustering>
</event>
<event>
 6    0  0.6851428E+002  0.2137769E+03  0.7546771E-02  0.1138610E+00
          2   -1    0    0  504    0 -0.00000000000E+00  0.00000000000E+00  0.43668682268E+03  0.43668682268E+03  0.00000000000E+00 0.  1.
         21   -1    0    0  503  502  0.00000000000E+00 -0.00000000000E+00 -0.53526856104E+03  0.53526856104E+03  0.00000000000E+00 0. -1.
         21    1    1    2  503  501  0.98611183311E+02  0.79556408068E+02 -0.35462458236E+03  0.37657931694E+03  0.00000000000E+00 0. -1.
         21    1    1    2  504  505 -0.10321184785E+02 -0.83001056433E+02 -0.37551659228E+02  0.91683310014E+02  0.00000000000E+00 0. -1.
         21    1    1    2  505  502  0.57769768106E+02 -0.13564975292E+03 -0.65434531208E-01  0.14743882073E+03  0.00000000000E+00 0.  1.
          2    1    1    2  501    0 -0.14605976663E+03  0.13909440129E+03  0.29365993775E+03  0.35625393603E+03  0.00000000000E+00 0.  1.
<scales pt_clust_3="126.70196" pt_clust_4="56.88821" pt_clust_5="56.88821" pt_clust_6="199.98936"></scales>
<clustering>
<clus scale="   56.888">  4  5 -1 -1</clus>
<clus scale="  126.702">  2  3  1 -1</clus>
<clus scale="  199.989">  1  6  2 -1</clus>
<clus scale="  126.702">  2  3  1 -1</clus>
</clustering>
</event>
<event>
 6    0  0.6851428E+002  0.1198213E+03  0.7546771E-02  0.1243392E+00
         -3   -1    0    0    0  501 -0.00000000000E+00  0.00000000000E+00  0.63038316683E+03  0.63038316683E+03  0.00000000000E+00 0.  1.
         21   -1    0    0  501  502  0.00000000000E+00 -0.00000000000E+00 -0.41327408189E+03  0.41327408189E+03  0.00000000000E+00 0.  1.
         21    1    1    2  503  502 -0.11060464898E+02  0.29991474482E+02 -0.23945523462E+03  0.24157945238E+03  0.00000000000E+00 0.  1.
         21    1    1    2  504  505  0.92966605527E+02 -0.29659576705E+01  0.21115922254E+03  0.23073752168E+03  0.00000000000E+00 0.  1.
         21    1    1    2  505  503 -0.82831904138E+02  0.57432377816E+02 -0.14238927292E+03  0.17445431324E+03  0.00000000000E+00 0.  1.
         -3    1    1    2    0  504  0.92576350922E+00 -0.84457894628E+02  0.38779436994E+03  0.39688596141E+03  0.00000000000E+00 0.  1.
<scales pt_clust_3="31.96596" pt_clust_4="119.82134" pt_clust_5="14000.00000" pt_clust_6="83.67113"></scales>
<clustering>
<clus scale="   31.966">  2  3  1 -1</clus>
<clus scale="   83.671">  1  6  2 -1</clus>
<clus scale="  119.821">  1  4  2 -1</clus>
<clus scale="   31.966">  2  3  1 -1</clus>
</clustering>
</event>
<event>
 6    0  0.6851428E+002  0.6147062E+02  0.7546771E-02  0.1391762E+00
         21   -1    0    0  505  502  0.00000000000E+00  0.00000000000E+00  0.26356121655E+02  0.26356121655E+02  0.00000000000E+00 0.  1.
         -1   -1    0    0    0  501 -0.00000000000E+00 -0.00000000000E+00 -0.22620880575E+04  0.22620880575E+04  0.00000000000E+00 0.  1.
         21    1    1    2  503  501  0.26288348079E+02  0.50545102933E+02 -0.48690944077E+03  0.49023125990E+03  0.00000000000E+00 0.  1.
         21    1    1    2  504  502 -0.53172488066E+02 -0.26373893467E+02 -0.27600520940E+02  0.65457501480E+02  0.00000000000E+00 0.  1.
         21    1    1    2  505  503  0.90560360524E+02 -0.51671862483E+01 -0.41286292758E+03  0.42270991907E+03  0.00000000000E+00 0.  1.
         -1    1    1    2    0  504 -0.63676220537E+02 -0.19004023218E+02 -0.13083590465E+04  0.13100454987E+04  0.00000000000E+00 0.  1.
<scales pt_clust_3="56.97267" pt_clust_4="61.47062" pt_clust_5="14000.00000" pt_clust_6="47.90664"></scales>
<clustering>
<clus scale="   56.973">  2  3  1 -1</clus>
<clus scale="   47.907">  2  6  1 -1</clus>
<clus scale="   61.471">  1  4  2 -1</clus>
<clus scale="   61.471">  1  3  2 -1</clus>
</clustering>
</event>
<event>
 6    0  0.6851428E+002  0.9823313E+02  0.7546771E-02  0.1284056E+00
         21   -1    0    0  504  502  0.00000000000E+00  0.00000000000E+00  0.33292630989E+03  0.33292630989E+03  0.00000000000E+00 0. -1.
          1   -1    0    0  502    0 -0.00000000000E+00 -0.00000000000E+00 -0.21548917990E+04  0.21548917990E+04  0.00000000000E+00 0.  1.
         21    1    1    2  503  505  0.65862180997E+02 -0.20485578594E+01  0.49446621589E+02  0.82383201331E+02  0.00000000000E+00 0. -1.
         21    1    1    2  504  503  0.40715042875E+02 -0.32981699241E+02  0.24619095125E+03  0.25170516816E+03  0.00000000000E+00 0. -1.
         21    1    1    2  505  501 -0.10160211541E+03  0.11930239331E+01 -0.12614634187E+03  0.16197935895E+03  0.00000000000E+00 0.  1.
          1    1    1    2  501    0 -0.49751084666E+01  0.33837233167E+02 -0.19914567200E+04  0.19917503804E+04  0.00000000000E+00 0.  1.
<scales pt_clust_3="98.23313" pt_clust_4="51.97415" pt_clust_5="14000.00000" pt_clust_6="34.20102"></scales>
<clustering>
<clus scale="   34.201">  2  6  1 -1</clus>
<clus scale="   51.974">  1  4  2 -1</clus>
<clus scale="   98.233">  1  3  2 -1</clus>
<clus scale="   51.974">  1  3  2 -1</clus>
</clustering>
</event>
<event>
 6    0  0.6851428E+002  0.9290727E+02  0.7546771E-02  0.1295960E+00
         21   -1    0    0  501  502  0.00000000000E+00  0.00000000000E+00  0.10227804679E+03  0.10227804679E+03  0.00000000000E+00 0. -1.
          1   -1    0    0  504    0 -0.00000000000E+00 -0.00000000000E+00 -0.98191700817E+03  0.98191700817E+03  0.00000000000E+00 0.  1.
         21    1    1    2  503  502  0.96237866696E+02  0.19267395859E+02  0.52075806818E+02  0.11110737683E+03  0.00000000000E+00 0. -1.
         21    1    1    2  504  505 -0.63521367371E+02 -0.34116735880E+02 -0.22597680812E+03  0.23720125123E+03  0.00000000000E+00 0.  1.
         21    1    1    2  505  503 -0.70252126589E+02 -0.27676794953E+02 -0.89730039715E+02  0.11727253002E+03  0.00000000000E+00 0. -1.
          1    1    1    2  501    0  0.37535627264E+02  0.42526134974E+02 -0.61600792037E+03  0.61861389689E+03  0.00000000000E+00 0.  1.
<scales pt_clust_3="92.90727" pt_clust_4="40.31076" pt_clust_5="14000.00000" pt_clust_6="56.72209"></scales>
<clustering>
<clus scale="   56.722">  2  6  1 -1</clus>
<clus scale="   40.311">  2  4  1 -1</clus>
<clus scale="   92.907">  1  3  2 -1</clus>
<clus scale="   92.907">  1  3  2 -1</clus>
</clustering>
</event>
<event>
 6    0  0.6851428E+002  0.6258226E+02  0.7546771E-02  0.1387304E+00
          2   -1    0    0  503    0 -0.00000000000E+00  0.00000000000E+00  0.43017952832E+03  0.43017952832E+03  0.00000000000E+00 0. -1.
         21   -1    0    0  505  502  0.00000000000E+00 -0.00000000000E+00 -0.97118330587E+03  0.97118330587E+03  0.00000000000E+00 0.  1.
         21    1    1    2  503  504  0.35859040276E+02 -0.79040929599E+01 -0.13647690443E+01  0.36745177229E+02  0.00000000000E+00 0. -1.
         21    1    1    2  504  502 -0.18653253402E+02 -0.10736908684E+03  0.19151637909E+03  0.22035105657E+03  0.00000000000E+00 0. -1.
         21    1    1    2  505  501 -0.19955451858E+01  0.62327159478E+02 -0.93297865284E+03  0.93506033157E+03  0.00000000000E+00 0.  1.
          2    1    1    2  501    0 -0.15210241688E+02  0.52946020322E+02  0.20182326525E+03  0.20920626882E+03  0.00000000000E+00 0. -1.
<scales pt_clust_3="36.71982" pt_clust_4="14000.00000" pt_clust_5="62.58226" pt_clust_6="49.07987"></scales>
<clustering>
<clus scale="   36.720">  1  3  2 -1</clus>
<clus scale="   49.080">  1  6  2 -1</clus>
<clus scale="   62.582">  2  5  1 -1</clus>
<clus scale="   62.582">  2  3  1 -1</clus>
</clustering>
</event>
<event>
 6    0  0.6851428E+002  0.1525282E+03  0.7546771E-02  0.1197400E+00
         -3   -1    0    0    0  501 -0.00000000000E+00  0.00000000000E+00  0.49973796326E+03  0.49973796326E+03  0.00000000000E+00 0. -1.
         21   -1    0    0  504  502  0.00000000000E+00 -0.00000000000E+00 -0.22484599238E+03  0.22484599238E+03  0.00000000000E+00 0. -1.
         21    1    1    2  503  501 -0.15049672204E+03  0.15593647167E+02 -0.27768421826E+02  0.15382948491E+03  0.00000000000E+00 0. -1.
         21    1    1    2  504  503 -0.69867493601E+02 -0.77206866625E+02 -0.48688709161E+02  0.11494762858E+03  0.00000000000E+00 0. -1.
         21    1    1    2  505  502  0.13536025928E+03  0.58408079706E+02  0.72529412974E+02  0.16429978488E+03  0.00000000000E+00 0. -1.
         -3    1    1    2    0  505  0.85003956362E+02  0.32051397521E+01  0.27881968890E+03  0.29150705727E+03  0.00000000000E+00 0. -1.
<scales pt_clust_3="152.52817" pt_clust_4="95.41764" pt_clust_5="14000.00000" pt_clust_6="85.06436"></scales>
<clustering>
<clus scale="   85.064">  1  6  2 -1</clus>
<clus scale="   95.418">  2  4  1 -1</clus>
<clus scale="  152.528">  1  3  2 -1</clus>
<clus scale="   95.418">  2  3  1 -1</clus>
</clustering>
</event>
<event>
 6    0  0.6851428E+002  0.8011672E+02  0.7546771E-02  0.1328721E+00
          1   -1    0    0  503    0 -0.00000000000E+00  0.00000000000E+00  0.50980027158E+03  0.50980027158E+03  0.00000000000E+00 0. -1.
         21   -1    0    0  504  502  0.00000000000E+00 -0.00000000000E+00 -0.11008257466E+03  0.11008257466E+03  0.00000000000E+00 0.  1.
         21    1    1    2  503  505 -0.36925068585E+02  0.48475140965E+01  0.71790388949E+02  0.80875330160E+02  0.00000000000E+00 0.  1.
         21    1    1    2  504  501 -0.46519521955E+02 -0.18732508402E+02  0.12128958735E+02  0.51595391596E+02  0.00000000000E+00 0.  1.
         21    1    1    2  505  502  0.12209019271E+03 -0.14892236008E+02 -0.39252527041E+02  0.12910675710E+03  0.00000000000E+00 0.  1.
          1    1    1    2  501    0 -0.38645602171E+02  0.28777230313E+02  0.35505087628E+03  0.35830536739E+03  0.00000000000E+00 0. -1.
<scales pt_clust_3="37.24190" pt_clust_4="52.55133" pt_clust_5="14000.00000" pt_clust_6="80.11672"></scales>
<clustering>
<clus scale="   37.242">  1  3  2 -1</clus>
<clus scale="   52.551">  2  4  1 -1</clus>
<clus scale="   80.117">  1  6  2 -1</clus>
<clus scale="   52.551">  2  3  1 -1</clus>
</clustering>
</event>
<event>
 6    0  0.6851428E+002  0.1305200E+03  0.7546771E-02  0.1226686E+00
         21   -1    0    0  504  502  0.00000000000E+00  0.00000000000E+00  0.40839730500E+03  0.40839730500E+03  0.00000000000E+00 0. -1.
         -3   -1    0    0    0  501 -0.00000000000E+00 -0.00000000000E+00 -0.51483223663E+03  0.51483223663E+03  0.00000000000E+00 0. -1.
         21    1    1    2  503  502 -0.67368555504E+02  0.45681972901E+02  0.23134082130E+03  0.24524261563E+03  0.00000000000E+00 0. -1.
         21    1    1    2  504  501  0.41933190735E+02 -0.82206540932E+02 -0.80479684225E+02  0.12244708012E+03  0.00000000000E+00 0. -1.
         21    1    1    2  505  503 -0.57304795323E+01  0.51642743573E+02  0.14382650610E+03  0.15292441014E+03  0.00000000000E+00 0. -1.
         -3    1    1    2    0  505  0.31165844300E+02 -0.15118175541E+02 -0.40112257481E+03  0.40261543575E+03  0.00000000000E+00 0. -1.
<scales pt_clust_3="43.81287" pt_clust_4="118.59418" pt_clust_5="43.81287" pt_clust_6="34.63913"></scales>
<clustering>
<clus scale="   34.639">  2  6  1 -1</clus>
<clus scale="   43.813">  3  5 -1 -1</clus>
<clus scale="  118.594">  2  4  1 -1</clus>
<clus scale="  130.520">  1  3  2 -1</clus>
</clustering>
</event>
<event>
 6    0  0.6851428E+002  0.1449688E+03  0.7546771E-02  0.1206795E+00
         21   -1    0    0  504  502  0.00000000000E+00  0.00000000000E+00  0.35722607322E+02  0.35722607322E+02  0.00000000000E+00 0.  1.
          1   -1    0    0  503    0 -0.00000000000E+00 -0.00000000000E+00 -0.19190164390E+04  0.19190164390E+04  0.00000000000E+00 0.  1.
         21    1    1    2  503  502 -0.29832641429E+02 -0.67738650321E+02 -0.92427501359E+02  0.11841179945E+03  0.00000000000E+00 0. -1.
         21    1    1    2  504  505  0.64442965899E+02  0.20801982014E+02 -0.10808309870E+03  0.12754440220E+03  0.00000000000E+00 0.  1.
         21    1    1    2  505  501  0.96094495476E+02  0.59216858689E+02 -0.31314237267E+03  0.33286473826E+03  0.00000000000E+00 0.  1.
          1    1    1    2  501    0 -0.13070481995E+03 -0.12280190381E+02 -0.13696408590E+04  0.13759181064E+04  0.00000000000E+00 0.  1.
<scales pt_clust_3="74.01697" pt_clust_4="37.71031" pt_clust_5="37.71031" pt_clust_6="136.54872"></scales>
<clustering>
<clus scale="   37.710">  4  5 -1 -1</clus>
<clus scale="   74.017">  1  3  2 -1</clus>
<clus scale="  136.549">  2  6  1 -1</clus>
<clus scale="   74.017">  1  3  2 -1</clus>
</clustering>
</event>
<event>
 6    0  0.6851428E+002  0.1889728E+03  0.7546771E-02  0.1159391E+00
         21   -1    0    0  503  502  0.00000000000E+00  0.00000000000E+00  0.23714520997E+03  0.23714520997E+03  0.00000000000E+00 0. -1.
          2   -1    0    0  505    0 -0.00000000000E+00 -0.00000000000E+00 -0.58782163425E+03  0.58782163425E+03  0.00000000000E+00 0.  1.
         21    1    1    2  503  501  0.18287715821E+03 -0.50925859483E+02 -0.97422111160E+02  0.21337423908E+03  0.00000000000E+00 0. -1.
         21    1    1    2  504  502 -0.12670283472E+03  0.22596743720E+02  0.81756175834E+02  0.15247391069E+03  0.00000000000E+00 0. -1.
         21    1    1    2  505  504 -0.31946250906E+02  0.46192541546E+02  0.48634744713E+02  0.74294362066E+02  0.00000000000E+00 0. -1.
          2    1    1    2  501    0 -0.24228072585E+02 -0.17863425783E+02 -0.38364523367E+03  0.38482433239E+03  0.00000000000E+00 0.  1.
<scales pt_clust_3="176.60739" pt_clust_4="43.78801" pt_clust_5="43.78801" pt_clust_6="30.10152"></scales>
<clustering>
<clus scale="   30.102">  2  6  1 -1</clus>
<clus scale="   43.788">  4  5 -1 -1</clus>
<clus scale="  176.607">  2  3  1 -1</clus>
<clus scale="  188.973">  1  3  2 -1</clus>
</clustering>
</event>
<event>
 6    0  0.6851428E+002  0.6635274E+02  0.7546771E-02  0.1372954E+00
          2   -1    0    0  503    0 -0.00000000000E+00  0.00000000000E+00  0.10462643551E+04  0.10462643551E+04  0.00000000000E+00 0.  1.
         21   -1    0    0  505  502  0.00000000000E+00 -0.00000000000E+00 -0.15143353435E+03  0.15143353435E+03  0.00000000000E+00 0.  1.
         21    1    1    2  503  504 -0.53004869681E+02 -0.11749995090E+02  0.22299177712E+03  0.22950579788E+03  0.00000000000E+00 0.  1.
         21    1    1    2  504  502  0.88211824554E+02 -0.76445814942E+02  0.94851063929E+02  0.15040615992E+03  0.00000000000E+00 0.  1.
         21    1    1    2  505  501 -0.20864605805E+02  0.60328285505E+02 -0.11155627012E+03  0.12852873302E+03  0.00000000000E+00 0.  1.
          2    1    1    2  501    0 -0.14342349067E+02  0.27867524527E+02  0.68854424982E+03  0.68925719863E+03  0.00000000000E+00 0.  1.
<scales pt_clust_3="62.36414" pt_clust_4="66.35274" pt_clust_5="14000.00000" pt_clust_6="31.34170"></scales>
<clustering>
<clus scale="   31.342">  1  6  2 -1</clus>
<clus scale="   62.364">  1  3  2 -1</clus>
<clus scale="   66.353">  1  4  2 -1</clus>
<clus scale="   66.353">  2  3  1 -1</clus>
</clustering>
</event>
<event>
 6    0  0.6851428E+002  0.1402284E+03  0.7546771E-02  0.1213022E+00
         21   -1    0    0  505  502  0.00000000000E+00  0.00000000000E+00  0.63830341976E+03  0.63830341976E+03  0.00000000000E+00 0. -1.
          1   -1    0    0  504    0 -0.00000000000E+00 -0.00000000000E+00 -0.17953580389E+04  0.17953580389E+04  0.00000000000E+00 0.  1.
         21    1    1    2  503  502 -0.33798361807E+02 -0.80993151050E+02 -0.76074311720E+03  0.76578868504E+03  0.00000000000E+00 0.  1.
         21    1    1    2  504  503 -0.59224340758E+02  0.32301714196E+02 -0.42431348026E+02  0.79695310862E+02  0.00000000000E+00 0. -1.
         21    1    1    2  505  501  0.13880416701E+03 -0.24322144220E+02  0.60715097200E+03  0.62329003383E+03  0.00000000000E+00 0. -1.
          1    1    1    2  501    0 -0.45781464445E+02  0.73013581073E+02 -0.96103112597E+03  0.96488742897E+03  0.00000000000E+00 0.  1.
<scales pt_clust_3="89.68151" pt_clust_4="67.46053" pt_clust_5="140.22840" pt_clust_6="14000.00000"></scales>
<clustering>
<clus scale="   67.461">  2  4  1 -1</clus>
<clus scale="   89.682">  2  3  1 -1</clus>
<clus scale="  140.228">  1  5  2 -1</clus>
<clus scale="  140.228">  1  3  2 -1</clus>
</clustering>
</event>
<event>
 6    0  0.6851428E+002  0.1111765E+03  0.7546771E-02  0.1258407E+00
         -3   -1    0    0    0  501 -0.00000000000E+00  0.00000000000E+00  0.43908540318E+02  0.43908540318E+02  0.00000000000E+00 0.  1.
         21   -1    0    0  504  502  0.00000000000E+00 -0.00000000000E+00 -0.17412156510E+04  0.17412156510E+04  0.00000000000E+00 0. -1.
         21    1    1    2  503  505  0.38524132439E+02  0.27999937971E+02 -0.93657192600E+02  0.10507033374E+03  0.00000000000E+00 0. -1.
         21    1    1    2  504  501 -0.13210283681E+03 -0.11004203523E+03 -0.96383554057E+03  0.97905023276E+03  0.00000000000E+00 0. -1.
         21    1    1    2  505  502  0.46698874758E+02  0.75665867823E+02 -0.64705988481E+03  0.65314056909E+03  0.00000000000E+00 0. -1.
         -3    1    1    2    0  503  0.46879829611E+02  0.63762294389E+01  0.72455073091E+01  0.47863055715E+02  0.00000000000E+00 0.  1.
<scales pt_clust_3="62.65452" pt_clust_4="14000.00000" pt_clust_5="111.17647" pt_clust_6="47.31147"></scales>
<clustering>
<clus scale="   47.311">  1  6  2 -1</clus>
<clus scale="   62.655">  1  3  2 -1</clus>
<clus scale="  111.176">  2  5  1 -1</clus>
<clus scale="  111.176">  2  3  1 -1</clus>
</clustering>
</event>
<event>
 6    0  0.6851428E+002  0.2370080E+03  0.7546771E-02  0.1121802E+00
          2   -1    0    0  504    0 -0.00000000000E+00  0.00000000000E+00  0.42983757547E+03  0.42983757547E+03  0.00000000000E+00 0. -1.
         21   -1    0    0  505  502  0.00000000000E+00 -0.00000000000E+00 -0.18955217569E+04  0.18955217569E+04  0.00000000000E+00 0.  1.
         21    1    1    2  503  502  0.24751256230E+02 -0.22252313653E+03  0.19772045784E+03  0.29870144028E+03  0.00000000000E+00 0. -1.
         21    1    1    2  504  503  0.41201359043E+02 -0.12777248596E+03 -0.27029437719E+02  0.13694506438E+03  0.00000000000E+00 0. -1.
         21    1    1    2  505  501 -0.92795802443E+02  0.21888245362E+03 -0.17168923759E+04  0.17332743637E+04  0.00000000000E+00 0.  1.
          2    1    1    2  501    0  0.26843187170E+02  0.13141316886E+03  0.80517174365E+02  0.15643846399E+03  0.00000000000E+00 0. -1.
<scales pt_clust_3="237.00805" pt_clust_4="114.22238" pt_clust_5="14000.00000" pt_clust_6="134.12672"></scales>
<clustering>
<clus scale="  134.127">  1  6  2 -1</clus>
<clus scale="  114.222">  1  4  2 -1</clus>
<clus scale="  237.008">  1  3  2 -1</clus>
<clus scale="  237.008">  2  3  1 -1</clus>
</clustering>
</event>
<event>
 6    0  0.6851428E+002  0.1595576E+03  0.7546771E-02  0.1189197E+00
          2   -1    0    0  503    0 -0.00000000000E+00  0.00000000000E+00  0.16902561903E+04  0.16902561903E+04  0.00000000000E+00 0. -1.
         21   -1    0    0  505  502  0.00000000000E+00 -0.00000000000E+00 -0.11231493383E+03  0.11231493383E+03  0.00000000000E+00 0. -1.
         21    1    1    2  503  504  0.15863694914E+02  0.11541335841E+03  0.10426535184E+02  0.11696415157E+03  0.00000000000E+00 0. -1.
         21    1    1    2  504  502  0.22544396443E+02  0.49183672763E+02  0.75302970025E+02  0.92724434601E+02  0.00000000000E+00 0. -1.
         21    1    1    2  505  501  0.64352127744E+02 -0.36166578384E+02 -0.16161970013E+02  0.75567367375E+02  0.00000000000E+00 0.  1.
          2    1    1    2  501    0 -0.10276021910E+03 -0.12843045279E+03  0.15083737213E+04  0.15173151706E+04  0.00000000000E+00 0. -1.
<scales pt_clust_3="14000.00000" pt_clust_4="54.10438" pt_clust_5="75.71305" pt_clust_6="159.55761"></scales>
<clustering>
<clus scale="   54.104">  2  4  1 -1</clus>
<clus scale="   75.713">  2  5  1 -1</clus>
<clus scale="  159.558">  1  6  2 -1</clus>
<clus scale="   54.104">  2  3  1 -1</clus>
</clustering>
</event>
<event>
 6    0  0.6851428E+002  0.5635701E+02  0.7546771E-02  0.1413788E+00
         21   -1    0    0  503  502  0.00000000000E+00  0.00000000000E+00  0.72560510600E+02  0.72560510600E+02  0.00000000000E+00 0.  1.
          2   -1    0    0  505    0 -0.00000000000E+00 -0.00000000000E+00 -0.23786527465E+04  0.23786527465E+04  0.00000000000E+00 0.  1.
         21    1    1    2  503  501 -0.39611487307E+02  0.48915855800E+02  0.43052351956E+02  0.76258349603E+02  0.00000000000E+00 0.  1.
         21    1    1    2  504  502 -0.94777662074E+01 -0.53442534277E+02 -0.10936542235E+03  0.12209311253E+03  0.00000000000E+00 0.  1.
         21    1    1    2  505  504  0.81173532102E+02 -0.39894052680E+02 -0.32644919125E+03  0.33874732799E+03  0.00000000000E+00 0.  1.
          2    1    1    2  501    0 -0.32084278589E+02  0.44420731158E+02 -0.19133299743E+04  0.19141144670E+04  0.00000000000E+00 0.  1.
<scales pt_clust_3="48.15860" pt_clust_4="54.27645" pt_clust_5="14000.00000" pt_clust_6="56.35701"></scales>
<clustering>
<clus scale="   54.276">  1  4  2 -1</clus>
<clus scale="   48.159">  1  3  2 -1</clus>
<clus scale="   56.357">  2  6  1 -1</clus>
<clus scale="   54.276">  1  3  2 -1</clus>
</clustering>
</event>
<event>
 6    0  0.6851428E+002  0.2521657E+03  0.7546771E-02  0.1111944E+00
         21   -1    0    0  501  502  0.00000000000E+00  0.00000000000E+00  0.10237071035E+03  0.10237071035E+03  0.00000000000E+00 0. -1.
          2   -1    0    0  503    0 -0.00000000000E+00 -0.00000000000E+00 -0.96501187127E+03  0.96501187127E+03  0.00000000000E+00 0.  1.
         21    1    1    2  503  505 -0.54593844432E+02  0.28146640183E+02 -0.10039913309E+03  0.11769752388E+03  0.00000000000E+00 0.  1.
         21    1    1    2  504  502  0.20366371301E+02 -0.29677821512E+02  0.31009121514E+02  0.47509238962E+02  0.00000000000E+00 0. -1.
         21    1    1    2  505  504 -0.18605092424E+03 -0.60489898287E+02 -0.43648050018E+03  0.47831914162E+03  0.00000000000E+00 0. -1.
          2    1    1    2  501    0  0.22027839737E+03  0.62021079616E+02 -0.35677064916E+03  0.42385667715E+03  0.00000000000E+00 0.  1.
<scales pt_clust_3="48.83374" pt_clust_4="35.99392" pt_clust_5="48.83374" pt_clust_6="235.68493"></scales>
<clustering>
<clus scale="   35.994">  1  4  2 -1</clus>
<clus scale="   48.834">  3  5 -1 -1</clus>
<clus scale="  235.685">  1  6  2 -1</clus>
<clus scale="   35.994">  1  3  2 -1</clus>
</clustering>
</event>
<event>
 6    0  0.6851428E+002  0.1561333E+03  0.7546771E-02  0.1193133E+00
         21   -1    0    0  503  502  0.00000000000E+00  0.00000000000E+00  0.88029852273E+02  0.88029852273E+02  0.00000000000E+00 0.  1.
          1   -1    0    0  502    0 -0.00000000000E+00 -0.00000000000E+00 -0.13741830622E+04  0.13741830622E+04  0.00000000000E+00 0. -1.
         21    1    1    2  503  504  0.66868225490E+02  0.14301535311E+01 -0.19757043967E+02  0.69740559975E+02  0.00000000000E+00 0.  1.
         21    1    1    2  504  505 -0.17241149842E+02  0.70298164344E+02 -0.18627716581E+02  0.74740089530E+02  0.00000000000E+00 0.  1.
         21    1    1    2  505  501 -0.56913475105E+02  0.79531482779E+02 -0.48907938765E+02  0.10934526453E+03  0.00000000000E+00 0.  1.
          1    1    1    2  501    0  0.72863994569E+01 -0.15125980065E+03 -0.11988605106E+04  0.12083870004E+04  0.00000000000E+00 0. -1.
<scales pt_clust_3="66.88352" pt_clust_4="31.94157" pt_clust_5="31.94157" pt_clust_6="151.65454"></scales>
<clustering>
<clus scale="   31.942">  4  5 -1 -1</clus>
<clus scale="   66.884">  1  3  2 -1</clus>
<clus scale="  151.655">  2  6  1 -1</clus>
<clus scale="   66.884">  1  3  2 -1</clus>
</clustering>
</event>
<event>
 6    0  0.6851428E+002  0.8921668E+02  0.7546771E-02  0.1304760E+00
         21   -1    0    0  501  502  0.00000000000E+00  0.00000000000E+00  0.12953696942E+04  0.12953696942E+04  0.00000000000E+00 0. -1.
          2   -1    0    0  503    0 -0.00000000000E+00 -0.00000000000E+00 -0.14206483510E+03  0.14206483510E+03  0.00000000000E+00 0.  1.
         21    1    1    2  503  505 -0.60384403939E+02  0.17506396465E+02  0.28108081225E+03  0.28802634111E+03  0.00000000000E+00 0. -1.
         21    1    1    2  504  502 -0.71511254898E+02 -0.53687601016E+02  0.55960517039E+03  0.56670465394E+03  0.00000000000E+00 0. -1.
         21    1    1    2  505  504  0.89794803519E+02  0.23667877004E+02  0.43910085558E+03  0.44881269647E+03  0.00000000000E+00 0.  1.
          2    1    1    2  501    0  0.42100855319E+02  0.12513327547E+02 -0.12648197915E+03  0.13389083775E+03  0.00000000000E+00 0.  1.
<scales pt_clust_3="52.52842" pt_clust_4="89.21668" pt_clust_5="14000.00000" pt_clust_6="43.92113"></scales>
<clustering>
<clus scale="   43.921">  2  6  1 -1</clus>
<clus scale="   52.528">  2  3  1 -1</clus>
<clus scale="   89.217">  1  4  2 -1</clus>
<clus scale="   89.217">  1  3  2 -1</clus>
</clustering>
</event>
<event>
 6    0  0.6851428E+002  0.1419909E+03  0.7546771E-02  0.1210675E+00
         21   -1    0    0  503  502  0.00000000000E+00  0.00000000000E+00  0.60134127832E+02  0.60134127832E+02  0.00000000000E+00 0.  1.
          1   -1    0    0  505    0 -0.00000000000E+00 -0.00000000000E+00 -0.34650861815E+03  0.34650861815E+03  0.00000000000E+00 0.  1.
         21    1    1    2  503  501 -0.52694568776E+02 -0.56463043255E+02 -0.28140128778E+02  0.82198903154E+02  0.00000000000E+00 0.  1.
         21    1    1    2  504  502  0.82353091312E+02  0.25683996891E+02 -0.13066355930E+03  0.15657159728E+03  0.00000000000E+00 0.  1.
         21    1    1    2  505  504  0.26967414412E+02  0.43405383747E+02 -0.60112646532E+02  0.78897395719E+02  0.00000000000E+00 0. -1.
          1    1    1    2  501    0 -0.56625936947E+02 -0.12626337383E+02 -0.67458155705E+02  0.88974849828E+02  0.00000000000E+00 0.  1.
<scales pt_clust_3="50.81286" pt_clust_4="138.02205" pt_clust_5="37.11746" pt_clust_6="50.81286"></scales>
<clustering>
<clus scale="   37.117">  4  5 -1 -1</clus>
<clus scale="   50.813">  3  6 -1 -1</clus>
<clus scale="  138.022">  2  4  1 -1</clus>
<clus scale="  141.991">  1  3  2 -1</clus>
</clustering>
</event>
<event>
 6    0  0.6851428E+002  0.9310767E+02  0.7546771E-02  0.1295496E+00
         21   -1    0    0  503  502  0.00000000000E+00  0.00000000000E+00  0.20383934338E+04  0.20383934338E+04  0.00000000000E+00 0.  1.
          4   -1    0    0  502    0 -0.00000000000E+00 -0.00000000000E+00 -0.42473593538E+03  0.42473593538E+03  0.00000000000E+00 0. -1.
         21    1    1    2  503  504 -0.84705000864E+01 -0.33405577581E+02  0.14099600950E+04  0.14103812079E+04  0.00000000000E+00 0.  1.
         21    1    1    2  504  505 -0.28382859792E+02 -0.56688805494E+02  0.56029808926E+03  0.56387335123E+03  0.00000000000E+00 0. -1.
         21    1    1    2  505  501  0.10944556076E+03  0.47310247350E+02  0.32627724763E+01  0.11927797767E+03  0.00000000000E+00 0.  1.
          4    1    1    2  501    0 -0.72592200878E+02  0.42784135725E+02 -0.35986345832E+03  0.36959683242E+03  0.00000000000E+00 0. -1.
<scales pt_clust_3="34.46276" pt_clust_4="93.10767" pt_clust_5="14000.00000" pt_clust_6="84.18767"></scales>
<clustering>
<clus scale="   34.463">  1  3  2 -1</clus>
<clus scale="   84.188">  2  6  1 -1</clus>
<clus scale="   93.108">  1  4  2 -1</clus>
<clus scale="   34.463">  1  3  2 -1</clus>
</clustering>
</event>
<event>
 6    0  0.6851428E+002  0.1564149E+03  0.7546771E-02  0.1192805E+00
         21   -1    0    0  504  502  0.00000000000E+00  0.00000000000E+00  0.11453837403E+04  0.11453837403E+04  0.00000000000E+00 0. -1.
          1   -1    0    0  505    0 -0.00000000000E+00 -0.00000000000E+00 -0.46424329133E+02  0.46424329133E+02  0.00000000000E+00 0.  1.
         21    1    1    2  503  501  0.26984028498E+02 -0.12602509722E+03  0.71415499496E+03  0.72569127027E+03  0.00000000000E+00 0. -1.
         21    1    1    2  504  503 -0.19496661801E+02 -0.30877265875E+02  0.14004763323E+03  0.14473031798E+03  0.00000000000E+00 0. -1.
         21    1    1    2  505  502  0.60380578174E+02  0.55638762884E+02  0.13127709241E+03  0.15483914604E+03  0.00000000000E+00 0. -1.
          1    1    1    2  501    0 -0.67867944871E+02  0.10126360021E+03  0.11347969056E+03  0.16654733513E+03  0.00000000000E+00 0.  1.
<scales pt_clust_3="30.56522" pt_clust_4="30.56522" pt_clust_5="82.10655" pt_clust_6="145.49370"></scales>
<clustering>
<clus scale="   30.565">  3  4 -1 -1</clus>
<clus scale="   82.107">  2  5  1 -1</clus>
<clus scale="  145.494">  2  6  1 -1</clus>
<clus scale="  156.415">  1  3  2 -1</clus>
</clustering>
</event>
<event>
 6    0  0.6851428E+002  0.1995378E+03  0.7546771E-02  0.1150130E+00
          2   -1    0    0  503    0 -0.00000000000E+00  0.00000000000E+00  0.27913907542E+04  0.27913907542E+04  0.00000000000E+00 0. -1.
         21   -1    0    0  505  502  0.00000000000E+00 -0.00000000000E+00 -0.16547603461E+03  0.16547603461E+03  0.00000000000E+00 0.  1.
         21    1    1    2  503  504 -0.10098991854E+03 -0.67881543284E+02  0.40926896194E+03  0.42697535148E+03  0.00000000000E+00 0.  1.
         21    1    1    2  504  502  0.20011126289E+03  0.80042277434E+02 -0.56218815829E+02  0.22273715219E+03  0.00000000000E+00 0.  1.
         21    1    1    2  505  501 -0.14827228595E+03  0.72317047796E+02  0.41307170713E+03  0.44479507800E+03  0.00000000000E+00 0. -1.
          2    1    1    2  501    0  0.49150941596E+02 -0.84477781946E+02  0.18597928663E+04  0.18623592071E+04  0.00000000000E+00 0. -1.
<scales pt_clust_3="14000.00000" pt_clust_4="199.53781" pt_clust_5="129.96699" pt_clust_6="97.73592"></scales>
<clustering>
<clus scale="   97.736">  1  6  2 -1</clus>
<clus scale="  129.967">  1  5  2 -1</clus>
<clus scale="  199.538">  2  4  1 -1</clus>
<clus scale="  199.538">  2  3  1 -1</clus>
</clustering>
</event>
<event>
 6    0  0.6851428E+002  0.1059192E+03  0.7546771E-02  0.1268319E+00
         21   -1    0    0  501  502  0.00000000000E+00  0.00000000000E+00  0.13162397415E+03  0.13162397415E+03  0.00000000000E+00 0. -1.
          2   -1    0    0  503    0 -0.00000000000E+00 -0.00000000000E+00 -0.69500920220E+03  0.69500920220E+03  0.00000000000E+00 0.  1.
         21    1    1    2  503  505 -0.63569901639E+01 -0.73955671201E+02 -0.12115027509E+03  0.14208181369E+03  0.00000000000E+00 0.  1.
         21    1    1    2  504  502  0.38981801695E+02  0.86599377425E+02  0.93476210376E+02  0.13325477455E+03  0.00000000000E+00 0. -1.
         21    1    1    2  505  504 -0.38505880298E+02 -0.44465063527E+02 -0.11340012073E+03  0.12774753255E+03  0.00000000000E+00 0.  1.
          2    1    1    2  501    0  0.58810687671E+01  0.31821357303E+02 -0.42231104261E+03  0.42354905556E+03  0.00000000000E+00 0.  1.
<scales pt_clust_3="37.53389" pt_clust_4="97.26786" pt_clust_5="37.53389" pt_clust_6="32.36025"></scales>
<clustering>
<clus scale="   32.360">  2  6  1 -1</clus>
<clus scale="   37.534">  3  5 -1 -1</clus>
<clus scale="   97.268">  1  4  2 -1</clus>
<clus scale="   97.268">  1  3  2 -1</clus>
</clustering>
</event>
<event>
 6    0  0.6851428E+002  0.1055432E+03  0.7546771E-02  0.1269053E+00
          2   -1    0    0  502    0 -0.00000000000E+00  0.00000000000E+00  0.17550460059E+03  0.17550460059E+03  0.00000000000E+00 0. -1.
         21   -1    0    0  505  502  0.00000000000E+00 -0.00000000000E+00 -0.59528089469E+03  0.59528089469E+03  0.00000000000E+00 0. -1.
         21    1    1    2  503  504  0.62441840924E+02  0.52156726026E+02 -0.13049099648E+03  0.15377648627E+03  0.00000000000E+00 0. -1.
         21    1    1    2  504  501 -0.10127022663E+03  0.16436807640E+01  0.13931479356E+02  0.10223720754E+03  0.00000000000E+00 0. -1.
         21    1    1    2  505  503  0.72462580275E+02 -0.13576263528E+02 -0.39890457314E+03  0.40565995482E+03  0.00000000000E+00 0. -1.
          2    1    1    2  501    0 -0.33634194566E+02 -0.40224143262E+02  0.95687796157E+02  0.10911184665E+03  0.00000000000E+00 0. -1.
<scales pt_clust_3="14000.00000" pt_clust_4="105.54323" pt_clust_5="72.56898" pt_clust_6="52.43320"></scales>
<clustering>
<clus scale="   52.433">  1  6  2 -1</clus>
<clus scale="   72.569">  2  5  1 -1</clus>
<clus scale="  105.543">  1  4  2 -1</clus>
<clus scale="   72.569">  2  3  1 -1</clus>
</clustering>
</event>
<event>
 6    0  0.6851428E+002  0.1407880E+03  0.7546771E-02  0.1212273E+00
          1   -1    0    0  503    0 -0.00000000000E+00  0.00000000000E+00  0.32539380530E+03  0.32539380530E+03  0.00000000000E+00 0.  1.
         21   -1    0    0  504  502  0.00000000000E+00 -0.00000000000E+00 -0.82302248383E+02  0.82302248383E+02  0.00000000000E+00 0.  1.
         21    1    1    2  503  502 -0.35480454926E+02 -0.10917937765E+03  0.13615543568E+03  0.17809351996E+03  0.00000000000E+00 0.  1.
         21    1    1    2  504  505 -0.20275602594E+00 -0.32101116383E+02 -0.81243881534E+01  0.33113871201E+02  0.00000000000E+00 0.  1.
         21    1    1    2  505  501  0.40715738178E+02  0.37687720243E+02  0.43087977383E+02  0.70247486698E+02  0.00000000000E+00 0. -1.
          1    1    1    2  501    0 -0.50325272262E+01  0.10359277379E+03  0.71972532002E+02  0.12624117582E+03  0.00000000000E+00 0.  1.
<scales pt_clust_3="125.24323" pt_clust_4="32.10176" pt_clust_5="48.46853" pt_clust_6="48.46853"></scales>
<clustering>
<clus scale="   32.102">  2  4  1 -1</clus>
<clus scale="   48.469">  5  6 -1 -1</clus>
<clus scale="  125.243">  1  3  2 -1</clus>
<clus scale="   32.102">  2  3  1 -1</clus>
</clustering>
</event>
<event>
 6    0  0.6851428E+002  0.1492129E+03  0.7546771E-02  0.1201444E+00
         21   -1    0    0  503  502  0.00000000000E+00  0.00000000000E+00  0.13868801870E+03  0.13868801870E+03  0.00000000000E+00 0. -1.
         -2   -1    0    0    0  501 -0.00000000000E+00 -0.00000000000E+00 -0.63620431483E+03  0.63620431483E+03  0.00000000000E+00 0.  1.
         21    1    1    2  503  505  0.15171558840E+03  0.12166547634E+02  0.55327493063E+02  0.16194683119E+03  0.00000000000E+00 0. -1.
         21    1    1    2  504  501 -0.17808635428E+02  0.32621544811E+02 -0.17088764758E+03  0.17488253422E+03  0.00000000000E+00 0. -1.
         21    1    1    2  505  504 -0.35381106016E+01 -0.57819568118E+02 -0.36182811190E+02  0.68299462001E+02  0.00000000000E+00 0. -1.
         -2    1    1    2    0  502 -0.13036884237E+03  0.13031475673E+02 -0.34577333042E+03  0.36976350611E+03  0.00000000000E+00 0.  1.
<scales pt_clust_3="149.21288" pt_clust_4="37.16602" pt_clust_5="54.42468" pt_clust_6="14000.00000"></scales>
<clustering>
<clus scale="   37.166">  2  4  1 -1</clus>
<clus scale="   54.425">  2  5  1 -1</clus>
<clus scale="  149.213">  1  3  2 -1</clus>
<clus scale="  149.213">  1  3  2 -1</clus>
</clustering>
</event>
<event>
 6    0  0.6851428E+002  0.9800152E+02  0.7546771E-02  0.1284555E+00
          2   -1    0    0  503    0 -0.00000000000E+00  0.00000000000E+00  0.16350710615E+04  0.16350710615E+04  0.00000000000E+00 0.  1.
         21   -1    0    0  504  502  0.00000000000E+00 -0.00000000000E+00 -0.16410617531E+03  0.16410617531E+03  0.00000000000E+00 0.  1.
         21    1    1    2  503  505  0.18409069637E+02 -0.75670862517E+02 -0.16561111365E+02  0.79619367547E+02  0.00000000000E+00 0.  1.
         21    1    1    2  504  501 -0.24117678662E+02  0.11737714350E+03  0.52292202498E+03  0.53647600175E+03  0.00000000000E+00 0. -1.
         21    1    1    2  505  502  0.42221079458E+02 -0.46336256236E+01 -0.10445333468E+03  0.11275898706E+03  0.00000000000E+00 0.  1.
          2    1    1    2  501    0 -0.36512470432E+02 -0.37072655362E+02  0.10690573072E+04  0.10703228804E+04  0.00000000000E+00 0.  1.
<scales pt_clust_3="98.00152" pt_clust_4="14000.00000" pt_clust_5="42.47458" pt_clust_6="51.73529"></scales>
<clustering>
<clus scale="   42.475">  2  5  1 -1</clus>
<clus scale="   51.735">  1  6  2 -1</clus>
<clus scale="   98.002">  2  3  1 -1</clus>
<clus scale="   42.475">  2  3  1 -1</clus>
</clustering>
</event>
<event>
 6    0  0.6851428E+002  0.1056141E+03  0.7546771E-02  0.1268914E+00
          1   -1    0    0  502    0 -0.00000000000E+00  0.00000000000E+00  0.13856923845E+03  0.13856923845E+03  0.00000000000E+00 0. -1.
         21   -1    0    0  503  502  0.00000000000E+00 -0.00000000000E+00 -0.42433445309E+03  0.42433445309E+03  0.00000000000E+00 0.  1.
         21    1    1    2  503  504  0.32796713648E+02  0.19719734672E+02 -0.15000750104E+03  0.15481195926E+03  0.00000000000E+00 0. -1.
         21    1    1    2  504  505 -0.44864773190E+01 -0.41152154434E+02 -0.10647961219E+03  0.11424331974E+03  0.00000000000E+00 0.  1.
         21    1    1    2  505  501  0.77583200157E+02  0.47444329871E+02 -0.12099710203E+03  0.15136187130E+03  0.00000000000E+00 0.  1.
          1    1    1    2  501    0 -0.10589343649E+03 -0.26011910109E+02  0.91719000618E+02  0.14248654123E+03  0.00000000000E+00 0. -1.
<scales pt_clust_3="38.26869" pt_clust_4="34.30323" pt_clust_5="14000.00000" pt_clust_6="105.61407"></scales>
<clustering>
<clus scale="   38.269">  2  3  1 -1</clus>
<clus scale="   34.303">  2  4  1 -1</clus>
<clus scale="  105.614">  1  6  2 -1</clus>
<clus scale="   38.269">  2  3  1 -1</clus>
</clustering>
</event>
<event>
 6    0  0.6851428E+002  0.1234832E+03  0.7546771E-02  0.1237459E+00
         21   -1    0    0  505  502  0.00000000000E+00  0.00000000000E+00  0.18065996458E+03  0.18065996458E+03  0.00000000000E+00 0.  1.
          2   -1    0    0  502    0 -0.00000000000E+00 -0.00000000000E+00 -0.14199194079E+04  0.14199194079E+04  0.00000000000E+00 0. -1.
         21    1    1    2  503  504  0.62759295408E+01  0.39084349404E+02 -0.12869863209E+03  0.13464884538E+03  0.00000000000E+00 0. -1.
         21    1    1    2  504  501  0.75384691193E+02  0.37118364419E+02 -0.22844184785E+03  0.24340563365E+03  0.00000000000E+00 0. -1.
         21    1    1    2  505  503 -0.57871756811E+02 -0.95055644805E+02  0.15176529011E+03  0.18819516234E+03  0.00000000000E+00 0.  1.
          2    1    1    2  501    0 -0.23788863923E+02  0.18852930982E+02 -0.10338842535E+04  0.10343297311E+04  0.00000000000E+00 0. -1.
<scales pt_clust_3="41.18661" pt_clust_4="41.18661" pt_clust_5="111.11952" pt_clust_6="30.35363"></scales>
<clustering>
<clus scale="   30.354">  2  6  1 -1</clus>
<clus scale="   41.187">  3  4 -1 -1</clus>
<clus scale="  111.120">  1  5  2 -1</clus>
<clus scale="  111.120">  1  3  2 -1</clus>
</clustering>
</event>
<event>
 6    0  0.6851428E+002  0.1443509E+03  0.7546771E-02  0.1207592E+00
         21   -1    0    0  503  502  0.00000000000E+00  0.00000000000E+00  0.23113201618E+03  0.23113201618E+03  0.00000000000E+00 0. -1.
          2   -1    0    0  505    0 -0.00000000000E+00 -0.00000000000E+00 -0.87216479043E+03  0.87216479043E+03  0.00000000000E+00 0.  1.
         21    1    1    2  503  501  0.16230094967E+03 -0.20146735906E+02 -0.19143573978E+03  0.25178389880E+03  0.00000000000E+00 0. -1.
         21    1    1    2  504  502 -0.90267963641E+02  0.39752976844E+02  0.16265730648E+03  0.19022619109E+03  0.00000000000E+00 0. -1.
         21    1    1    2  505  504 -0.31525398694E+02  0.85126146329E+01  0.12221820227E+02  0.34866721388E+02  0.00000000000E+00 0. -1.
          2    1    1    2  501    0 -0.40507587330E+02 -0.28118855571E+02 -0.62447616118E+03  0.62641999533E+03  0.00000000000E+00 0.  1.
<scales pt_clust_3="133.85165" pt_clust_4="31.09701" pt_clust_5="31.09701" pt_clust_6="49.31059"></scales>
<clustering>
<clus scale="   31.097">  4  5 -1 -1</clus>
<clus scale="   49.311">  2  6  1 -1</clus>
<clus scale="  133.852">  2  3  1 -1</clus>
<clus scale="  144.351">  1  3  2 -1</clus>
</clustering>
</event>
<event>
 6    0  0.6851428E+002  0.6894024E+02  0.7546771E-02  0.1363734E+00
         21   -1    0    0  503  502  0.00000000000E+00  0.00000000000E+00  0.88457205847E+03  0.88457205847E+03  0.00000000000E+00 0.  1.
          2   -1    0    0  505    0 -0.00000000000E+00 -0.00000000000E+00 -0.83425297749E+02  0.83425297749E+02  0.00000000000E+00 0.  1.
         21    1    1    2  503  504  0.33310125376E+02  0.10899137362E+02  0.80320623058E+02  0.87634229250E+02  0.00000000000E+00 0.  1.
         21    1    1    2  504  501 -0.90807784154E+02  0.69075986655E+02  0.12105331266E+03  0.16634737780E+03  0.00000000000E+00 0.  1.
         21    1    1    2  505  502  0.16056440547E+02 -0.49928205427E+02  0.64414282566E+03  0.64627441140E+03  0.00000000000E+00 0.  1.
          2    1    1    2  501    0  0.41441218231E+02 -0.30046918591E+02 -0.44370000653E+02  0.67741337773E+02  0.00000000000E+00 0.  1.
<scales pt_clust_3="35.04791" pt_clust_4="14000.00000" pt_clust_5="68.94024" pt_clust_6="51.48972"></scales>
<clustering>
<clus scale="   35.048">  1  3  2 -1</clus>
<clus scale="   51.490">  2  6  1 -1</clus>
<clus scale="   68.940">  1  5  2 -1</clus>
<clus scale="   35.048">  1  3  2 -1</clus>
</clustering>
</event>
<event>
 6    0  0.6851428E+002  0.3267746E+03  0.7546771E-02  0.1072573E+00
          2   -1    0    0  505    0 -0.00000000000E+00  0.00000000000E+00  0.13089781785E+04  0.13089781785E+04  0.00000000000E+00 0.  1.
         21   -1    0    0  504  502  0.00000000000E+00 -0.00000000000E+00 -0.42076456847E+03  0.42076456847E+03  0.00000000000E+00 0. -1.
         21    1    1    2  503  501  0.42810794264E+02 -0.21471139547E+02 -0.17572855483E+02  0.51015479894E+02  0.00000000000E+00 0. -1.
         21    1    1    2  504  503  0.55045141816E+02 -0.28535994446E+03 -0.20926289753E+03  0.35812180305E+03  0.00000000000E+00 0. -1.
         21    1    1    2  505  502  0.38471841814E+02  0.31944378653E+02 -0.75829457990E+02  0.90832993120E+02  0.00000000000E+00 0. -1.
          2    1    1    2  501    0 -0.13632777789E+03  0.27488670535E+03  0.11908788210E+04  0.12297724709E+04  0.00000000000E+00 0.  1.
<scales pt_clust_3="44.87147" pt_clust_4="44.87147" pt_clust_5="50.00526" pt_clust_6="307.51240"></scales>
<clustering>
<clus scale="   44.871">  3  4 -1 -1</clus>
<clus scale="   50.005">  2  5  1 -1</clus>
<clus scale="  307.512">  1  6  2 -1</clus>
<clus scale="   50.005">  2  3  1 -1</clus>
</clustering>
</event>
<event>
 6    0  0.6851428E+002  0.2543195E+03  0.7546771E-02  0.1110605E+00
          2   -1    0    0  503    0 -0.00000000000E+00  0.00000000000E+00  0.15923184920E+04  0.15923184920E+04  0.00000000000E+00 0.  1.
         21   -1    0    0  505  502  0.00000000000E+00 -0.00000000000E+00 -0.59493143203E+03  0.59493143203E+03  0.00000000000E+00 0. -1.
         21    1    1    2  503  502  0.31852386976E+03 -0.47159844399E+02  0.48302693194E+03  0.58051401663E+03  0.00000000000E+00 0. -1.
         21    1    1    2  504  501 -0.19669113009E+03 -0.12233329253E+03  0.45732200157E+03  0.51263656545E+03  0.00000000000E+00 0. -1.
         21    1    1    2  505  504 -0.87463346476E+02  0.15071754958E+03 -0.50318744485E+03  0.53250654586E+03  0.00000000000E+00 0. -1.
          2    1    1    2  501    0 -0.34369393190E+02  0.18775587349E+02  0.56022557130E+03  0.56159279608E+03  0.00000000000E+00 0.  1.
<scales pt_clust_3="254.31946" pt_clust_4="14000.00000" pt_clust_5="174.73356" pt_clust_6="39.16348"></scales>
<clustering>
<clus scale="   39.163">  1  6  2 -1</clus>
<clus scale="  174.734">  2  5  1 -1</clus>
<clus scale="  254.319">  2  3  1 -1</clus>
<clus scale="  174.734">  2  3  1 -1</clus>
</clustering>
</event>
<event>
 6    0  0.6851428E+002  0.2069511E+03  0.7546771E-02  0.1144003E+00
         21   -1    0    0  501  502  0.00000000000E+00  0.00000000000E+00  0.70139050045E+02  0.70139050045E+02  0.00000000000E+00 0. -1.
         -3   -1    0    0    0  501 -0.00000000000E+00 -0.00000000000E+00 -0.12158239647E+04  0.12158239647E+04  0.00000000000E+00 0. -1.
         21    1    1    2  503  504 -0.68268805994E+01 -0.21306018487E+03 -0.21093354285E+03  0.29989032691E+03  0.00000000000E+00 0. -1.
         21    1    1    2  504  505 -0.33374324960E+02 -0.60147444372E+01 -0.68238943550E+02  0.76200893263E+02  0.00000000000E+00 0. -1.
         21    1    1    2  505  502  0.27215512372E+02  0.14218602154E+02 -0.15390185916E+02  0.34346915195E+02  0.00000000000E+00 0. -1.
         -3    1    1    2    0  503  0.12985693188E+02  0.20485632716E+03 -0.85112224239E+03  0.87552487942E+03  0.00000000000E+00 0. -1.
<scales pt_clust_3="206.95108" pt_clust_4="31.99439" pt_clust_5="30.70591" pt_clust_6="14000.00000"></scales>
<clustering>
<clus scale="   30.706">  1  5  2 -1</clus>
<clus scale="   31.994">  1  4  2 -1</clus>
<clus scale="  206.951">  1  3  2 -1</clus>
<clus scale="   30.706">  1  3  2 -1</clus>
</clustering>
</event>
<event>
 6    0  0.6851428E+002  0.1835106E+03  0.7546771E-02  0.1164448E+00
         21   -1    0    0  503  502  0.00000000000E+00  0.00000000000E+00  0.69617454108E+03  0.69617454108E+03  0.00000000000E+00 0.  1.
          3   -1    0    0  505    0 -0.00000000000E+00 -0.00000000000E+00 -0.48601298245E+03  0.48601298245E+03  0.00000000000E+00 0.  1.
         21    1    1    2  503  501 -0.24176999770E+02  0.44082075940E+02  0.99077997315E+01  0.51243743351E+02  0.00000000000E+00 0.  1.
         21    1    1    2  504  502 -0.81025707224E+02 -0.28166199344E+02  0.23033950111E+03  0.24579419397E+03  0.00000000000E+00 0.  1.
         21    1    1    2  505  504 -0.39506867577E+02  0.10357817362E+03  0.40043847299E+03  0.41549994138E+03  0.00000000000E+00 0.  1.
          3    1    1    2  501    0  0.14470957457E+03 -0.11949405022E+03 -0.43052421520E+03  0.46964964482E+03  0.00000000000E+00 0.  1.
<scales pt_clust_3="50.27680" pt_clust_4="90.52634" pt_clust_5="183.51060" pt_clust_6="14000.00000"></scales>
<clustering>
<clus scale="   50.277">  1  3  2 -1</clus>
<clus scale="   90.526">  1  4  2 -1</clus>
<clus scale="  183.511">  1  5  2 -1</clus>
<clus scale="   50.277">  1  3  2 -1</clus>
</clustering>
</event>
<event>
 6    0  0.6851428E+002  0.9293361E+02  0.7546771E-02  0.1295899E+00
          2   -1    0    0  504    0 -0.00000000000E+00  0.00000000000E+00  0.14908168529E+04  0.14908168529E+04  0.00000000000E+00 0. -1.
         21   -1    0    0  505  502  0.00000000000E+00 -0.00000000000E+00 -0.69664907392E+02  0.69664907392E+02  0.00000000000E+00 0.  1.
         21    1    1    2  503  501  0.49912634242E+02 -0.39027616555E+02 -0.13465376620E+02  0.64774549620E+02  0.00000000000E+00 0.  1.
         21    1    1    2  504  502  0.90519145042E+01 -0.34060922582E+02  0.57495251903E+02  0.67437286383E+02  0.00000000000E+00 0. -1.
         21    1    1    2  505  503 -0.62580913919E+02 -0.22139887390E+02  0.22192552708E+02  0.69993248219E+02  0.00000000000E+00 0.  1.
          2    1    1    2  501    0  0.36163651726E+01  0.95228426527E+02  0.13549295175E+04  0.13582766760E+04  0.00000000000E+00 0. -1.
<scales pt_clust_3="92.93361" pt_clust_4="35.24321" pt_clust_5="68.66370" pt_clust_6="14000.00000"></scales>
<clustering>
<clus scale="   35.243">  2  4  1 -1</clus>
<clus scale="   68.664">  2  5  1 -1</clus>
<clus scale="   92.934">  2  3  1 -1</clus>
<clus scale="   35.243">  2  3  1 -1</clus>
</clustering>
</event>
<event>
 6    0  0.6851428E+002  0.2402521E+03  0.7546771E-02  0.1119625E+00
          1   -1    0    0  505    0 -0.00000000000E+00  0.00000000000E+00  0.21736938088E+04  0.21736938088E+04  0.00000000000E+00 0. -1.
         21   -1    0    0  503  502  0.00000000000E+00 -0.00000000000E+00 -0.24824130056E+03  0.24824130056E+03  0.00000000000E+00 0. -1.
         21    1    1    2  503  501  0.46500609219E+02 -0.21754019837E+02 -0.27057264564E+02  0.58031367401E+02  0.00000000000E+00 0. -1.
         21    1    1    2  504  502 -0.80144609228E+02  0.79557548347E+02 -0.19121267744E+02  0.11453464440E+03  0.00000000000E+00 0. -1.
         21    1    1    2  505  504 -0.92008385436E+02  0.13935411860E+03 -0.79506928610E+02  0.18494989878E+03  0.00000000000E+00 0. -1.
          1    1    1    2  501    0  0.12565238545E+03 -0.19715764711E+03  0.20511379691E+04  0.20644191988E+04  0.00000000000E+00 0. -1.
<scales pt_clust_3="51.33755" pt_clust_4="40.32446" pt_clust_5="40.32446" pt_clust_6="235.19479"></scales>
<clustering>
<clus scale="   40.324">  4  5 -1 -1</clus>
<clus scale="   51.338">  2  3  1 -1</clus>
<clus scale="  235.195">  1  6  2 -1</clus>
<clus scale="   51.338">  2  3  1 -1</clus>
</clustering>
</event>
<event>
 6    0  0.6851428E+002  0.1597330E+03  0.7546771E-02  0.1188998E+00
         21   -1    0    0  505  502  0.00000000000E+00  0.00000000000E+00  0.20663781183E+03  0.20663781183E+03  0.00000000000E+00 0. -1.
          2   -1    0    0  504    0 -0.00000000000E+00 -0.00000000000E+00 -0.34025676020E+04  0.34025676020E+04  0.00000000000E+00 0. -1.
         21    1    1    2  503  502 -0.69342432125E+02 -0.14147176161E+03  0.15638682302E+03  0.22198979851E+03  0.00000000000E+00 0. -1.
         21    1    1    2  504  503  0.77571995206E+02 -0.76289750536E+02 -0.80988492320E+03  0.81716040611E+03  0.00000000000E+00 0. -1.
         21    1    1    2  505  501  0.27313664511E+02  0.25683517996E+03 -0.12430226991E+04  0.12695730685E+04  0.00000000000E+00 0. -1.
          2    1    1    2  501    0 -0.35543227591E+02 -0.39073667811E+02 -0.12994089909E+04  0.13004821407E+04  0.00000000000E+00 0. -1.
<scales pt_clust_3="159.73305" pt_clust_4="111.48255" pt_clust_5="14000.00000" pt_clust_6="52.82114"></scales>
<clustering>
<clus scale="   52.821">  2  6  1 -1</clus>
<clus scale="  111.483">  2  4  1 -1</clus>
<clus scale="  159.733">  1  3  2 -1</clus>
<clus scale="  159.733">  1  3  2 -1</clus>
</clustering>
</event>
<event>
 6    0  0.6851428E+002  0.2044767E+03  0.7546771E-02  0.1146016E+00
         21   -1    0    0  503  502  0.00000000000E+00  0.00000000000E+00  0.17063654534E+03  0.17063654534E+03  0.00000000000E+00 0. -1.
          2   -1    0    0  505    0 -0.00000000000E+00 -0.00000000000E+00 -0.40500828539E+04  0.40500828539E+04  0.00000000000E+00 0. -1.
         21    1    1    2  503  501 -0.16343102564E+02 -0.12986747319E+03 -0.12281599006E+04  0.12351151360E+04  0.00000000000E+00 0. -1.
         21    1    1    2  504  502 -0.41056811333E+02  0.63429788227E+01  0.12805177500E+03  0.13462225751E+03  0.00000000000E+00 0. -1.
         21    1    1    2  505  504  0.13686140780E+03  0.20050053013E+03 -0.39199336599E+03  0.46107516362E+03  0.00000000000E+00 0. -1.
          2    1    1    2  501    0 -0.79461493907E+02 -0.76976035761E+02 -0.23873448169E+04  0.23899068421E+04  0.00000000000E+00 0. -1.
<scales pt_clust_3="204.47672" pt_clust_4="41.54389" pt_clust_5="14000.00000" pt_clust_6="111.45460"></scales>
<clustering>
<clus scale="   41.544">  1  4  2 -1</clus>
<clus scale="  111.455">  2  6  1 -1</clus>
<clus scale="  204.477">  2  3  1 -1</clus>
<clus scale="   41.544">  1  3  2 -1</clus>
</clustering>
</event>
<event>
 6    0  0.6851428E+002  0.1103018E+03  0.7546771E-02  0.1260012E+00
          2   -1    0    0  505    0 -0.00000000000E+00  0.00000000000E+00  0.33185364951E+03  0.33185364951E+03  0.00000000000E+00 0. -1.
         21   -1    0    0  503  502  0.00000000000E+00 -0.00000000000E+00 -0.59847480320E+03  0.59847480320E+03  0.00000000000E+00 0. -1.
         21    1    1    2  503  504 -0.62596006390E+02  0.44270570802E+01 -0.35579865806E+03  0.36129011048E+03  0.00000000000E+00 0. -1.
         21    1    1    2  504  501 -0.65382638849E+01  0.10339980483E+03 -0.10250646429E+03  0.14574581899E+03  0.00000000000E+00 0. -1.
         21    1    1    2  505  502 -0.26042993848E+02 -0.44633327661E+02 -0.98608302515E+02  0.11132820304E+03  0.00000000000E+00 0. -1.
          2    1    1    2  501    0  0.95177264123E+02 -0.63193534248E+02  0.29029227117E+03  0.31196432020E+03  0.00000000000E+00 0. -1.
<scales pt_clust_3="86.19169" pt_clust_4="14000.00000" pt_clust_5="51.67564" pt_clust_6="110.30181"></scales>
<clustering>
<clus scale="   51.676">  2  5  1 -1</clus>
<clus scale="   86.192">  2  3  1 -1</clus>
<clus scale="  110.302">  1  6  2 -1</clus>
<clus scale="   51.676">  2  3  1 -1</clus>
</clustering>
</event>
<event>
 6    0  0.6851428E+002  0.9997641E+02  0.7546771E-02  0.1280346E+00
         21   -1    0    0  505  502  0.00000000000E+00  0.00000000000E+00  0.14675612106E+04  0.14675612106E+04  0.00000000000E+00 0.  1.
          2   -1    0    0  504    0 -0.00000000000E+00 -0.00000000000E+00 -0.80851569184E+03  0.80851569184E+03  0.00000000000E+00 0.  1.
         21    1    1    2  503  501  0.45664185456E+02 -0.44834786401E+02  0.66494542222E+02  0.92287052452E+02  0.00000000000E+00 0. -1.
         21    1    1    2  504  502 -0.63283110758E+02 -0.95395017082E+01  0.10945538044E+04  0.10964231778E+04  0.00000000000E+00 0.  1.
         21    1    1    2  505  503 -0.17244298295E+02 -0.39538949051E+02  0.28791185591E+03  0.29112528418E+03  0.00000000000E+00 0.  1.
          2    1    1    2  501    0  0.34863223597E+02  0.93913237160E+02 -0.78991468370E+03  0.79624138802E+03  0.00000000000E+00 0.  1.
<scales pt_clust_3="65.08937" pt_clust_4="99.97641" pt_clust_5="43.13577" pt_clust_6="14000.00000"></scales>
<clustering>
<clus scale="   43.136">  1  5  2 -1</clus>
<clus scale="   65.089">  1  3  2 -1</clus>
<clus scale="   99.976">  1  4  2 -1</clus>
<clus scale="   43.136">  1  3  2 -1</clus>
</clustering>
</event>
<event>
 6    0  0.6851428E+002  0.9015027E+02  0.7546771E-02  0.1302488E+00
          2   -1    0    0  505    0 -0.00000000000E+00  0.00000000000E+00  0.24716871906E+03  0.24716871906E+03  0.00000000000E+00 0. -1.
         21   -1    0    0  504  502  0.00000000000E+00 -0.00000000000E+00 -0.12748412268E+03  0.12748412268E+03  0.00000000000E+00 0. -1.
         21    1    1    2  503  502  0.11304675020E+02  0.33882600693E+02  0.11167799033E+02  0.37423869954E+02  0.00000000000E+00 0. -1.
         21    1    1    2  504  501 -0.58323779682E+02  0.57658217475E+02 -0.52426315832E+02  0.97337823638E+02  0.00000000000E+00 0. -1.
         21    1    1    2  505  503  0.69824891969E+02  0.12793687691E+02  0.60236954798E+02  0.93100401216E+02  0.00000000000E+00 0. -1.
          2    1    1    2  501    0 -0.22805787307E+02 -0.10433450586E+03  0.10070615839E+03  0.14679074693E+03  0.00000000000E+00 0. -1.
<scales pt_clust_3="35.71871" pt_clust_4="90.15027" pt_clust_5="73.59993" pt_clust_6="14000.00000"></scales>
<clustering>
<clus scale="   35.719">  2  3  1 -1</clus>
<clus scale="   73.600">  1  5  2 -1</clus>
<clus scale="   90.150">  2  4  1 -1</clus>
<clus scale="   35.719">  2  3  1 -1</clus>
</clustering>
</event>
<event>
 6    0  0.6851428E+002  0.1155091E+03  0.7546771E-02  0.1250695E+00
         21   -1    0    0  505  502  0.00000000000E+00  0.00000000000E+00  0.33942953776E+02  0.33942953776E+02  0.00000000000E+00 0.  1.
          2   -1    0    0  504    0 -0.00000000000E+00 -0.00000000000E+00 -0.14489456065E+04  0.14489456065E+04  0.00000000000E+00 0.  1.
         21    1    1    2  503  502 -0.52903799335E+02 -0.81840950228E+02 -0.26660352590E+03  0.28385593730E+03  0.00000000000E+00 0.  1.
         21    1    1    2  504  503 -0.14548029044E+02 -0.55000893666E+02 -0.77514926997E+02  0.96152521343E+02  0.00000000000E+00 0.  1.
         21    1    1    2  505  501  0.90713972034E+01  0.59341213810E+02 -0.52101577950E+02  0.79487384714E+02  0.00000000000E+00 0.  1.
          2    1    1    2  501    0  0.58380431175E+02  0.77500630084E+02 -0.10187826219E+04  0.10233927169E+04  0.00000000000E+00 0.  1.
<scales pt_clust_3="39.80124" pt_clust_4="39.80124" pt_clust_5="60.03057" pt_clust_6="103.09645"></scales>
<clustering>
<clus scale="   39.801">  3  4 -1 -1</clus>
<clus scale="   60.031">  1  5  2 -1</clus>
<clus scale="  103.096">  2  6  1 -1</clus>
<clus scale="   60.031">  1  3  2 -1</clus>
</clustering>
</event>
<event>
 6    0  0.6851428E+002  0.9166892E+02  0.7546771E-02  0.1298860E+00
          2   -1    0    0  504    0 -0.00000000000E+00  0.00000000000E+00  0.21676050315E+04  0.21676050315E+04  0.00000000000E+00 0. -1.
         21   -1    0    0  503  502  0.00000000000E+00 -0.00000000000E+00 -0.11162194610E+03  0.11162194610E+03  0.00000000000E+00 0. -1.
         21    1    1    2  503  501 -0.24384419459E+01 -0.63096720859E+02 -0.93793383277E+02  0.11306785984E+03  0.00000000000E+00 0. -1.
         21    1    1    2  504  505 -0.41520617197E+02  0.80063906594E+02  0.45821248092E+03  0.46700414181E+03  0.00000000000E+00 0. -1.
         21    1    1    2  505  502  0.19620479397E+02  0.41982137900E+02  0.16849558120E+03  0.17475189269E+03  0.00000000000E+00 0. -1.
          2    1    1    2  501    0  0.24338579746E+02 -0.58949323635E+02  0.15230684066E+04  0.15244030833E+04  0.00000000000E+00 0. -1.
<scales pt_clust_3="63.14382" pt_clust_4="43.67802" pt_clust_5="43.67802" pt_clust_6="68.48526"></scales>
<clustering>
<clus scale="   43.678">  4  5 -1 -1</clus>
<clus scale="   63.144">  2  3  1 -1</clus>
<clus scale="   68.485">  1  6  2 -1</clus>
<clus scale="   63.144">  2  3  1 -1</clus>
</clustering>
</event>
<event>
 6    0  0.6851428E+002  0.2272517E+03  0.7546771E-02  0.1128589E+00
          2   -1    0    0  503    0 -0.00000000000E+00  0.00000000000E+00  0.13981067904E+04  0.13981067904E+04  0.00000000000E+00 0.  1.
         21   -1    0    0  501  502  0.00000000000E+00 -0.00000000000E+00 -0.46549884202E+02  0.46549884202E+02  0.00000000000E+00 0.  1.
         21    1    1    2  503  505 -0.24875245297E+02 -0.26319137995E+02  0.15493036007E+03  0.15910654080E+03  0.00000000000E+00 0.  1.
         21    1    1    2  504  502 -0.48612595407E+02  0.44051782500E+02  0.21678152363E+03  0.22649055821E+03  0.00000000000E+00 0. -1.
         21    1    1    2  505  504 -0.14678499591E+03  0.41568069552E+02  0.56940501382E+03  0.58948775152E+03  0.00000000000E+00 0.  1.
          2    1    1    2  501    0  0.22027283662E+03 -0.59300714056E+02  0.41044000873E+03  0.46957182412E+03  0.00000000000E+00 0.  1.
<scales pt_clust_3="36.21429" pt_clust_4="30.89983" pt_clust_5="30.89983" pt_clust_6="222.31285"></scales>
<clustering>
<clus scale="   30.900">  4  5 -1 -1</clus>
<clus scale="   36.214">  1  3  2 -1</clus>
<clus scale="  222.313">  2  6  1 -1</clus>
<clus scale="  222.313">  2  3  1 -1</clus>
</clustering>
</event>
<event>
 6    0  0.6851428E+002  0.1894304E+03  0.7546771E-02  0.1158976E+00
         21   -1    0    0  503  502  0.00000000000E+00  0.00000000000E+00  0.37364900809E+03  0.37364900809E+03  0.00000000000E+00 0. -1.
          2   -1    0    0  504    0 -0.00000000000E+00 -0.00000000000E+00 -0.81518717950E+03  0.81518717950E+03  0.00000000000E+00 0.  1.
         21    1    1    2  503  501  0.20431797949E+02 -0.15003370786E+03  0.10395286460E+03  0.18366755271E+03  0.00000000000E+00 0. -1.
         21    1    1    2  504  505  0.74266273912E+01  0.10325031404E+03  0.15013885924E+03  0.18236627758E+03  0.00000000000E+00 0. -1.
         21    1    1    2  505  502 -0.55109789777E+01  0.89895076414E+02  0.30471545023E+02  0.95078970907E+02  0.00000000000E+00 0. -1.
          2    1    1    2  501    0 -0.22347446362E+02 -0.43111682595E+02 -0.72610144027E+03  0.72772338639E+03  0.00000000000E+00 0.  1.
<scales pt_clust_3="169.81445" pt_clust_4="74.60046" pt_clust_5="74.60046" pt_clust_6="48.55951"></scales>
<clustering>
<clus scale="   48.560">  2  6  1 -1</clus>
<clus scale="   74.600">  4  5 -1 -1</clus>
<clus scale="  169.814">  1  3  2 -1</clus>
<clus scale="  169.814">  1  3  2 -1</clus>
</clustering>
</event>
<event>
 6    0  0.6851428E+002  0.1483498E+03  0.7546771E-02  0.1202516E+00
         21   -1    0    0  504  502  0.00000000000E+00  0.00000000000E+00  0.70161565092E+03  0.70161565092E+03  0.00000000000E+00 0. -1.
          1   -1    0    0  503    0 -0.00000000000E+00 -0.00000000000E+00 -0.14081423354E+04  0.14081423354E+04  0.00000000000E+00 0.  1.
         21    1    1    2  503  505 -0.97272659334E+02 -0.72072537553E+02 -0.23820781732E+01  0.12108713895E+03  0.00000000000E+00 0.  1.
         21    1    1    2  504  501  0.14441969591E+02  0.24372986001E+03  0.45350103367E+03  0.51504951479E+03  0.00000000000E+00 0. -1.
         21    1    1    2  505  502  0.32857222245E+02 -0.32674417329E+02  0.15034219778E+03  0.15732129873E+03  0.00000000000E+00 0.  1.
          1    1    1    2  501    0  0.49973467498E+02 -0.13898290512E+03 -0.13079878378E+04  0.13163000338E+04  0.00000000000E+00 0.  1.
<scales pt_clust_3="120.41322" pt_clust_4="14000.00000" pt_clust_5="46.33805" pt_clust_6="148.34978"></scales>
<clustering>
<clus scale="   46.338">  1  5  2 -1</clus>
<clus scale="  120.413">  1  3  2 -1</clus>
<clus scale="  148.350">  2  6  1 -1</clus>
<clus scale="   46.338">  1  3  2 -1</clus>
</clustering>
</event>
<event>
 6    0  0.6851428E+002  0.1900960E+03  0.7546771E-02  0.1158375E+00
          1   -1    0    0  503    0 -0.00000000000E+00  0.00000000000E+00  0.48509716062E+04  0.48509716062E+04  0.00000000000E+00 0. -1.
         21   -1    0    0  504  502  0.00000000000E+00 -0.00000000000E+00 -0.53619155038E+02  0.53619155038E+02  0.00000000000E+00 0.  1.
         21    1    1    2  503  502  0.98447377002E+02  0.11076453145E+02  0.12890786445E+03  0.16257863134E+03  0.00000000000E+00 0.  1.
         21    1    1    2  504  505 -0.35142488651E+02  0.79176966403E+02  0.24580311764E+03  0.26062071898E+03  0.00000000000E+00 0.  1.
         21    1    1    2  505  501 -0.55211319528E+02  0.10672723830E+03  0.10595223101E+03  0.16020258567E+03  0.00000000000E+00 0.  1.
          1    1    1    2  501    0 -0.80935688232E+01 -0.19698065785E+03  0.43166892381E+04  0.43211888253E+04  0.00000000000E+00 0. -1.
<scales pt_clust_3="94.49192" pt_clust_4="86.62555" pt_clust_5="14000.00000" pt_clust_6="190.09596"></scales>
<clustering>
<clus scale="   86.626">  2  4  1 -1</clus>
<clus scale="   94.492">  2  3  1 -1</clus>
<clus scale="  190.096">  1  6  2 -1</clus>
<clus scale="   86.626">  2  3  1 -1</clus>
</clustering>
</event>
<event>
 6    0  0.6851428E+002  0.1112770E+03  0.7546771E-02  0.1258223E+00
         21   -1    0    0  504  502  0.00000000000E+00  0.00000000000E+00  0.46743619105E+02  0.46743619105E+02  0.00000000000E+00 0.  1.
          2   -1    0    0  502    0 -0.00000000000E+00 -0.00000000000E+00 -0.16395493015E+04  0.16395493015E+04  0.00000000000E+00 0.  1.
         21    1    1    2  503  501  0.33429003645E+02  0.11648501670E+02 -0.74937530911E+02  0.82878341048E+02  0.00000000000E+00 0. -1.
         21    1    1    2  504  505  0.65574593621E+02 -0.22402577714E+01  0.33186595991E+01  0.65696724309E+02  0.00000000000E+00 0.  1.
         21    1    1    2  505  503  0.12534198893E+02  0.29646446046E+02 -0.37869304077E+02  0.49700121693E+02  0.00000000000E+00 0.  1.
          2    1    1    2  501    0 -0.11153779616E+03 -0.39054689945E+02 -0.14833175070E+04  0.14880177336E+04  0.00000000000E+00 0.  1.
<scales pt_clust_3="30.65855" pt_clust_4="65.61285" pt_clust_5="30.65855" pt_clust_6="106.53075"></scales>
<clustering>
<clus scale="   30.659">  3  5 -1 -1</clus>
<clus scale="   65.613">  1  4  2 -1</clus>
<clus scale="  106.531">  2  6  1 -1</clus>
<clus scale="   65.613">  1  3  2 -1</clus>
</clustering>
</event>
<event>
 6    0  0.6851428E+002  0.1068934E+03  0.7546771E-02  0.1266433E+00
          2   -1    0    0  504    0 -0.00000000000E+00  0.00000000000E+00  0.28441419365E+03  0.28441419365E+03  0.00000000000E+00 0.  1.
         21   -1    0    0  505  502  0.00000000000E+00 -0.00000000000E+00 -0.25790213230E+03  0.25790213230E+03  0.00000000000E+00 0.  1.
         21    1    1    2  503  502 -0.24085623693E+02 -0.21972645351E+02 -0.16664115854E+02  0.36614302801E+02  0.00000000000E+00 0.  1.
         21    1    1    2  504  503  0.30685179491E+02 -0.99934085214E+02  0.16403565777E+02  0.10581813927E+03  0.00000000000E+00 0.  1.
         21    1    1    2  505  501 -0.57304577928E+02  0.18039960699E+02 -0.16520945415E+03  0.17579368183E+03  0.00000000000E+00 0.  1.
          2    1    1    2  501    0  0.50705022130E+02  0.10386676987E+03  0.19198206557E+03  0.22409020204E+03  0.00000000000E+00 0.  1.
<scales pt_clust_3="32.60237" pt_clust_4="106.89342" pt_clust_5="75.08457" pt_clust_6="14000.00000"></scales>
<clustering>
<clus scale="   32.602">  2  3  1 -1</clus>
<clus scale="   75.085">  2  5  1 -1</clus>
<clus scale="  106.893">  2  4  1 -1</clus>
<clus scale="   32.602">  2  3  1 -1</clus>
</clustering>
</event>
<event>
 6    0  0.6851428E+002  0.1065033E+03  0.7546771E-02  0.1267186E+00
         -2   -1    0    0    0  501 -0.00000000000E+00  0.00000000000E+00  0.62028668843E+03  0.62028668843E+03  0.00000000000E+00 0. -1.
         21   -1    0    0  501  502  0.00000000000E+00 -0.00000000000E+00 -0.39709238600E+02  0.39709238600E+02  0.00000000000E+00 0.  1.
         21    1    1    2  503  505  0.55531944164E+02 -0.34674868412E+02  0.69478470956E+02  0.95464135928E+02  0.00000000000E+00 0.  1.
         21    1    1    2  504  502  0.17588546569E+02  0.62832513570E+02  0.52629874320E+02  0.83828309078E+02  0.00000000000E+00 0.  1.
         21    1    1    2  505  504  0.27932390432E+02 -0.31143678433E+02  0.10398223985E+03  0.11208235073E+03  0.00000000000E+00 0. -1.
         -2    1    1    2    0  503 -0.10105288116E+03  0.29860332750E+01  0.35448686470E+03  0.36862113129E+03  0.00000000000E+00 0. -1.
<scales pt_clust_3="32.84800" pt_clust_4="65.24785" pt_clust_5="32.84800" pt_clust_6="98.25684"></scales>
<clustering>
<clus scale="   32.848">  3  5 -1 -1</clus>
<clus scale="   65.248">  2  4  1 -1</clus>
<clus scale="   98.257">  1  6  2 -1</clus>
<clus scale="   65.248">  2  3  1 -1</clus>
</clustering>
</event>
<event>
 6    0  0.6851428E+002  0.1749156E+03  0.7546771E-02  0.1172816E+00
         21   -1    0    0  501  502  0.00000000000E+00  0.00000000000E+00  0.42380041601E+03  0.42380041601E+03  0.00000000000E+00 0.  1.
          2   -1    0    0  505    0 -0.00000000000E+00 -0.00000000000E+00 -0.10675436303E+03  0.10675436303E+03  0.00000000000E+00 0.  1.
         21    1    1    2  503  502 -0.91688288147E+01  0.14423150331E+03  0.19710293120E+03  0.24441022781E+03  0.00000000000E+00 0.  1.
         21    1    1    2  504  503  0.23700551656E+02 -0.12036351347E+03  0.30599536537E+01  0.12271289598E+03  0.00000000000E+00 0.  1.
         21    1    1    2  505  504  0.32526821681E+02 -0.46722690367E+02  0.36844316286E+02  0.67812296572E+02  0.00000000000E+00 0.  1.
          2    1    1    2  501    0 -0.47058544522E+02  0.22854700529E+02  0.80038851837E+02  0.95619358669E+02  0.00000000000E+00 0.  1.
<scales pt_clust_3="164.21724" pt_clust_4="41.03333" pt_clust_5="41.03333" pt_clust_6="52.31485"></scales>
<clustering>
<clus scale="   41.033">  4  5 -1 -1</clus>
<clus scale="   52.315">  1  6  2 -1</clus>
<clus scale="  164.217">  1  3  2 -1</clus>
<clus scale="   52.315">  1  3  2 -1</clus>
</clustering>
</event>
<event>
 6    0  0.6851428E+002  0.9299222E+02  0.7546771E-02  0.1295763E+00
         21   -1    0    0  504  502  0.00000000000E+00  0.00000000000E+00  0.33842505224E+02  0.33842505224E+02  0.00000000000E+00 0. -1.
         -2   -1    0    0    0  501 -0.00000000000E+00 -0.00000000000E+00 -0.13451741194E+04  0.13451741194E+04  0.00000000000E+00 0.  1.
         21    1    1    2  503  501 -0.86389062625E+02 -0.65618604427E+01 -0.17834338247E+03  0.19827377594E+03  0.00000000000E+00 0. -1.
         21    1    1    2  504  503  0.12889097718E+02  0.28007361464E+02 -0.48356742370E+00  0.30834639184E+02  0.00000000000E+00 0. -1.
         21    1    1    2  505  502 -0.15247904124E+02 -0.55616152342E+02 -0.12205078881E+03  0.13498907375E+03  0.00000000000E+00 0. -1.
         -2    1    1    2    0  505  0.88747869032E+02  0.34170651321E+02 -0.10104538755E+04  0.10149191358E+04  0.00000000000E+00 0.  1.
<scales pt_clust_3="14000.00000" pt_clust_4="30.83085" pt_clust_5="47.15893" pt_clust_6="92.99222"></scales>
<clustering>
<clus scale="   30.831">  1  4  2 -1</clus>
<clus scale="   47.159">  1  5  2 -1</clus>
<clus scale="   92.992">  2  6  1 -1</clus>
<clus scale="   30.831">  1  3  2 -1</clus>
</clustering>
</event>
<event>
 6    0  0.6851428E+002  0.1924939E+03  0.7546771E-02  0.1156231E+00
         21   -1    0    0  505  502  0.00000000000E+00  0.00000000000E+00  0.65792027464E+02  0.65792027464E+02  0.00000000000E+00 0. -1.
         -2   -1    0    0    0  501 -0.00000000000E+00 -0.00000000000E+00 -0.71196835293E+03  0.71196835293E+03  0.00000000000E+00 0. -1.
         21    1    1    2  503  501 -0.23835397755E+02  0.13945440808E+03 -0.39145150701E+03  0.41623303624E+03  0.00000000000E+00 0. -1.
         21    1    1    2  504  502 -0.84849932524E-01 -0.10335244276E+03 -0.44333376630E+02  0.11245969459E+03  0.00000000000E+00 0. -1.
         21    1    1    2  505  503 -0.38177331614E+02  0.17846595163E+02 -0.11832590317E+03  0.12560664381E+03  0.00000000000E+00 0. -1.
         -2    1    1    2    0  504  0.62097579301E+02 -0.53948560485E+02 -0.92065538656E+02  0.12346100575E+03  0.00000000000E+00 0. -1.
<scales pt_clust_3="183.62252" pt_clust_4="82.08012" pt_clust_5="39.08363" pt_clust_6="82.08012"></scales>
<clustering>
<clus scale="   39.084">  3  5 -1 -1</clus>
<clus scale="   82.080">  4  6 -1 -1</clus>
<clus scale="  183.623">  2  3  1 -1</clus>
<clus scale="  192.494">  1  3  2 -1</clus>
</clustering>
</event>
<event>
 6    0  0.6851428E+002  0.1354077E+03  0.7546771E-02  0.1219645E+00
         21   -1    0    0  503  502  0.00000000000E+00  0.00000000000E+00  0.16161408166E+03  0.16161408166E+03  0.00000000000E+00 0. -1.
          2   -1    0    0  504    0 -0.00000000000E+00 -0.00000000000E+00 -0.83956068951E+03  0.83956068951E+03  0.00000000000E+00 0. -1.
         21    1    1    2  503  501 -0.26551188803E+02  0.32441791484E+02  0.35003619877E+02  0.54613998810E+02  0.00000000000E+00 0. -1.
         21    1    1    2  504  505  0.56227695493E+02  0.15826864940E+02 -0.96867731699E+02  0.11311675755E+03  0.00000000000E+00 0.  1.
         21    1    1    2  505  502 -0.11275847904E+03 -0.58220880509E+02  0.68198053863E+02  0.14406637385E+03  0.00000000000E+00 0. -1.
          2    1    1    2  501    0  0.83081972351E+02  0.99522240845E+01 -0.68428054989E+03  0.68937764096E+03  0.00000000000E+00 0. -1.
<scales pt_clust_3="41.92178" pt_clust_4="57.30874" pt_clust_5="135.40769" pt_clust_6="14000.00000"></scales>
<clustering>
<clus scale="   41.922">  1  3  2 -1</clus>
<clus scale="   57.309">  2  4  1 -1</clus>
<clus scale="  135.408">  1  5  2 -1</clus>
<clus scale="   41.922">  1  3  2 -1</clus>
</clustering>
</event>
<event>
 6    0  0.6851428E+002  0.8421213E+02  0.7546771E-02  0.1317506E+00
          2   -1    0    0  504    0 -0.00000000000E+00  0.00000000000E+00  0.84445670649E+03  0.84445670649E+03  0.00000000000E+00 0.  1.
         21   -1    0    0  503  502  0.00000000000E+00 -0.00000000000E+00 -0.46697952974E+03  0.46697952974E+03  0.00000000000E+00 0.  1.
         21    1    1    2  503  501  0.10279338413E+03  0.23648564116E+02 -0.10057625173E+03  0.14574401126E+03  0.00000000000E+00 0.  1.
         21    1    1    2  504  505 -0.54014436186E+02 -0.61067517028E+02 -0.66612796401E+02  0.10528088904E+03  0.00000000000E+00 0.  1.
         21    1    1    2  505  502 -0.40529558510E+02 -0.43020345991E+01 -0.25569401852E+03  0.25892196454E+03  0.00000000000E+00 0.  1.
          2    1    1    2  501    0 -0.82493894379E+01  0.41720987511E+02  0.80036024340E+03  0.80148937139E+03  0.00000000000E+00 0.  1.
<scales pt_clust_3="84.21213" pt_clust_4="14000.00000" pt_clust_5="40.75724" pt_clust_6="42.53868"></scales>
<clustering>
<clus scale="   40.757">  2  5  1 -1</clus>
<clus scale="   42.539">  1  6  2 -1</clus>
<clus scale="   84.212">  2  3  1 -1</clus>
<clus scale="   40.757">  2  3  1 -1</clus>
</clustering>
</event>
<event>
 6    0  0.6851428E+002  0.1435244E+03  0.7546771E-02  0.1208664E+00
         21   -1    0    0  503  502  0.00000000000E+00  0.00000000000E+00  0.39315403970E+02  0.39315403970E+02  0.00000000000E+00 0. -1.
          2   -1    0    0  504    0 -0.00000000000E+00 -0.00000000000E+00 -0.51282814998E+03  0.51282814998E+03  0.00000000000E+00 0. -1.
         21    1    1    2  503  501 -0.31965233026E+02  0.22643650107E+02 -0.56637021295E+02  0.68864092194E+02  0.00000000000E+00 0. -1.
         21    1    1    2  504  505  0.43806132642E+01 -0.99053380117E+02 -0.20047526001E+03  0.22365395539E+03  0.00000000000E+00 0. -1.
         21    1    1    2  505  502  0.25455237051E+02 -0.27681585912E+02 -0.40854936658E+02  0.55528057244E+02  0.00000000000E+00 0. -1.
          2    1    1    2  501    0  0.21293827103E+01  0.10409131592E+03 -0.17554552804E+03  0.20409744912E+03  0.00000000000E+00 0. -1.
<scales pt_clust_3="37.04485" pt_clust_4="140.36500" pt_clust_5="32.29848" pt_clust_6="37.04485"></scales>
<clustering>
<clus scale="   32.298">  4  5 -1 -1</clus>
<clus scale="   37.045">  3  6 -1 -1</clus>
<clus scale="  140.365">  2  4  1 -1</clus>
<clus scale="  143.524">  1  3  2 -1</clus>
</clustering>
</event>
<event>
 6    0  0.6851428E+002  0.1792190E+03  0.7546771E-02  0.1168561E+00
          4   -1    0    0  502    0 -0.00000000000E+00  0.00000000000E+00  0.44396526878E+03  0.44396526878E+03  0.00000000000E+00 0. -1.
         21   -1    0    0  505  502  0.00000000000E+00 -0.00000000000E+00 -0.16413272899E+03  0.16413272899E+03  0.00000000000E+00 0. -1.
         21    1    1    2  503  501  0.62614293008E+02  0.14769519511E+03  0.22505698464E+02  0.16199051457E+03  0.00000000000E+00 0. -1.
         21    1    1    2  504  503  0.76865064408E+01 -0.52187612870E+02  0.24417348107E+02  0.58127757628E+02  0.00000000000E+00 0. -1.
         21    1    1    2  505  504 -0.43707181381E+02 -0.11775760443E+03 -0.24729075489E+02  0.12801835134E+03  0.00000000000E+00 0. -1.
          4    1    1    2  501    0 -0.26593618068E+02  0.22250022193E+02  0.25763856871E+03  0.25996137424E+03  0.00000000000E+00 0. -1.
<scales pt_clust_3="166.27702" pt_clust_4="41.49875" pt_clust_5="41.49875" pt_clust_6="34.67397"></scales>
<clustering>
<clus scale="   34.674">  1  6  2 -1</clus>
<clus scale="   41.499">  4  5 -1 -1</clus>
<clus scale="  166.277">  1  3  2 -1</clus>
<clus scale="  179.219">  2  3  1 -1</clus>
</clustering>
</event>
<event>
 6    0  0.6851428E+002  0.7187333E+02  0.7546771E-02  0.1353836E+00
         21   -1    0    0  504  502  0.00000000000E+00  0.00000000000E+00  0.14925328714E+03  0.14925328714E+03  0.00000000000E+00 0. -1.
          3   -1    0    0  505    0 -0.00000000000E+00 -0.00000000000E+00 -0.36240659389E+03  0.36240659389E+03  0.00000000000E+00 0.  1.
         21    1    1    2  503  501 -0.84097688062E+02 -0.71477009588E+01  0.11436086953E+02  0.85172148330E+02  0.00000000000E+00 0. -1.
         21    1    1    2  504  503  0.66289861094E+02 -0.14587562146E+02  0.63187621694E+02  0.92735204689E+02  0.00000000000E+00 0. -1.
         21    1    1    2  505  502 -0.66365865371E+01  0.64155086776E+02 -0.29583969304E+02  0.70958654721E+02  0.00000000000E+00 0. -1.
          3    1    1    2  501    0  0.24444413504E+02 -0.42419823672E+02 -0.25819304609E+03  0.26279387330E+03  0.00000000000E+00 0.  1.
<scales pt_clust_3="14000.00000" pt_clust_4="71.87333" pt_clust_5="43.56900" pt_clust_6="48.95887"></scales>
<clustering>
<clus scale="   48.959">  2  6  1 -1</clus>
<clus scale="   43.569">  2  5  1 -1</clus>
<clus scale="   71.873">  1  4  2 -1</clus>
<clus scale="   71.873">  1  3  2 -1</clus>
</clustering>
</event>
<event>
 6    0  0.6851428E+002  0.9896429E+02  0.7546771E-02  0.1282489E+00
          2   -1    0    0  505    0 -0.00000000000E+00  0.00000000000E+00  0.24589483495E+04  0.24589483495E+04  0.00000000000E+00 0.  1.
         21   -1    0    0  504  502  0.00000000000E+00 -0.00000000000E+00 -0.42323651500E+03  0.42323651500E+03  0.00000000000E+00 0. -1.
         21    1    1    2  503  501  0.97537338957E+02 -0.62509476209E+02  0.85974111238E+02  0.14426543214E+03  0.00000000000E+00 0.  1.
         21    1    1    2  504  503 -0.35493312715E+02 -0.53882334296E+02 -0.32669987175E+03  0.33301034128E+03  0.00000000000E+00 0. -1.
         21    1    1    2  505  502 -0.45112025597E+02  0.18163623446E+02 -0.53810645202E+02  0.72529977301E+02  0.00000000000E+00 0. -1.
          2    1    1    2  501    0 -0.16932000644E+02  0.98228187058E+02  0.23302482402E+04  0.23323791138E+04  0.00000000000E+00 0.  1.
<scales pt_clust_3="14000.00000" pt_clust_4="85.37195" pt_clust_5="48.63139" pt_clust_6="98.96429"></scales>
<clustering>
<clus scale="   48.631">  2  5  1 -1</clus>
<clus scale="   85.372">  2  4  1 -1</clus>
<clus scale="   98.964">  1  6  2 -1</clus>
<clus scale="   48.631">  2  3  1 -1</clus>
</clustering>
</event>
<event>
 6    0  0.6851428E+002  0.1223956E+03  0.7546771E-02  0.1239197E+00
          2   -1    0    0  503    0 -0.00000000000E+00  0.00000000000E+00  0.23641350257E+03  0.23641350257E+03  0.00000000000E+00 0. -1.
         21   -1    0    0  505  502  0.00000000000E+00 -0.00000000000E+00 -0.21628296997E+03  0.21628296997E+03  0.00000000000E+00 0.  1.
         21    1    1    2  503  502  0.86621674906E+02  0.56070833645E+02 -0.61862440150E+02  0.12030882948E+03  0.00000000000E+00 0.  1.
         21    1    1    2  504  501 -0.13343231102E+03 -0.78149416349E+02 -0.37862295150E+02  0.15920133885E+03  0.00000000000E+00 0.  1.
         21    1    1    2  505  504  0.18204152697E+02 -0.31757139099E+02 -0.22857839831E+01  0.36676039420E+02  0.00000000000E+00 0. -1.
          2    1    1    2  501    0  0.28606483414E+02  0.53835721803E+02  0.12214105189E+03  0.13651026479E+03  0.00000000000E+00 0. -1.
<scales pt_clust_3="14000.00000" pt_clust_4="122.39561" pt_clust_5="36.60474" pt_clust_6="60.26272"></scales>
<clustering>
<clus scale="   36.605">  2  5  1 -1</clus>
<clus scale="   60.263">  1  6  2 -1</clus>
<clus scale="  122.396">  1  4  2 -1</clus>
<clus scale="   36.605">  2  3  1 -1</clus>
</clustering>
</event>
<event>
 6    0  0.6851428E+002  0.1236748E+03  0.7546771E-02  0.1237155E+00
          2   -1    0    0  503    0 -0.00000000000E+00  0.00000000000E+00  0.34775204019E+04  0.34775204019E+04  0.00000000000E+00 0. -1.
         21   -1    0    0  504  502  0.00000000000E+00 -0.00000000000E+00 -0.50164617978E+02  0.50164617978E+02  0.00000000000E+00 0.  1.
         21    1    1    2  503  502 -0.43027756733E+02  0.70824486014E+01  0.26067711776E+01  0.43684598930E+02  0.00000000000E+00 0.  1.
         21    1    1    2  504  505  0.50203715286E+01  0.11211506527E+03  0.88562495539E+02  0.14296260912E+03  0.00000000000E+00 0.  1.
         21    1    1    2  505  501  0.88602963345E+01 -0.12894896288E+03  0.18393485821E+04  0.18438843636E+04  0.00000000000E+00 0.  1.
          2    1    1    2  501    0  0.29147088870E+02  0.97514490125E+01  0.14968379351E+04  0.14971534482E+04  0.00000000000E+00 0. -1.
<scales pt_clust_3="43.28948" pt_clust_4="123.67483" pt_clust_5="14000.00000" pt_clust_6="30.73505"></scales>
<clustering>
<clus scale="   30.735">  1  6  2 -1</clus>
<clus scale="   43.289">  2  3  1 -1</clus>
<clus scale="  123.675">  2  4  1 -1</clus>
<clus scale="   43.289">  2  3  1 -1</clus>
</clustering>
</event>
<event>
 6    0  0.6851428E+002  0.7670109E+02  0.7546771E-02  0.1338683E+00
         21   -1    0    0  503  502  0.00000000000E+00  0.00000000000E+00  0.49465734353E+03  0.49465734353E+03  0.00000000000E+00 0.  1.
          2   -1    0    0  505    0 -0.00000000000E+00 -0.00000000000E+00 -0.15092843035E+03  0.15092843035E+03  0.00000000000E+00 0.  1.
         21    1    1    2  503  504 -0.46500526455E+02  0.71365276945E+02  0.32078250064E+03  0.33189865084E+03  0.00000000000E+00 0.  1.
         21    1    1    2  504  501  0.18986811016E+02 -0.61600020897E+02  0.10442431354E+03  0.12271714968E+03  0.00000000000E+00 0.  1.
         21    1    1    2  505  502  0.14820051343E+02 -0.66873491413E+02  0.22133628700E+02  0.71983298723E+02  0.00000000000E+00 0.  1.
          2    1    1    2  501    0  0.12693664097E+02  0.57108235365E+02 -0.10361152970E+03  0.11898667464E+03  0.00000000000E+00 0.  1.
<scales pt_clust_3="14000.00000" pt_clust_4="76.70109" pt_clust_5="38.44790" pt_clust_6="58.50196"></scales>
<clustering>
<clus scale="   58.502">  2  6  1 -1</clus>
<clus scale="   38.448">  2  5  1 -1</clus>
<clus scale="   76.701">  2  4  1 -1</clus>
<clus scale="   76.701">  1  3  2 -1</clus>
</clustering>
</event>
<event>
 6    0  0.6851428E+002  0.1498477E+03  0.7546771E-02  0.1200660E+00
          1   -1    0    0  505    0 -0.00000000000E+00  0.00000000000E+00  0.53837536868E+03  0.53837536868E+03  0.00000000000E+00 0. -1.
         21   -1    0    0  504  502  0.00000000000E+00 -0.00000000000E+00 -0.15545170722E+03  0.15545170722E+03  0.00000000000E+00 0. -1.
         21    1    1    2  503  501 -0.78644648220E+02  0.10562585907E+03  0.17911500640E+03  0.22231506542E+03  0.00000000000E+00 0. -1.
         21    1    1    2  504  503  0.14622692065E+03 -0.66105971036E+02 -0.29168708601E+02  0.16310464522E+03  0.00000000000E+00 0. -1.
         21    1    1    2  505  502 -0.28238519480E+02 -0.43036842576E+02 -0.17855698736E+02  0.54483114620E+02  0.00000000000E+00 0.  1.
          1    1    1    2  501    0 -0.39343752952E+02  0.35169545391E+01  0.25083306241E+03  0.25392425064E+03  0.00000000000E+00 0. -1.
<scales pt_clust_3="14000.00000" pt_clust_4="149.84775" pt_clust_5="52.71512" pt_clust_6="39.50063"></scales>
<clustering>
<clus scale="   39.501">  1  6  2 -1</clus>
<clus scale="   52.715">  2  5  1 -1</clus>
<clus scale="  149.848">  2  4  1 -1</clus>
<clus scale="   52.715">  2  3  1 -1</clus>
</clustering>
</event>
<event>
 6    0  0.6851428E+002  0.7177082E+02  0.7546771E-02  0.1354173E+00
         21   -1    0    0  505  502  0.00000000000E+00  0.00000000000E+00  0.25415923811E+03  0.25415923811E+03  0.00000000000E+00 0. -1.
          2   -1    0    0  503    0 -0.00000000000E+00 -0.00000000000E+00 -0.20371315154E+03  0.20371315154E+03  0.00000000000E+00 0. -1.
         21    1    1    2  503  504 -0.98723359023E+02 -0.41118782824E+02 -0.85097528893E+02  0.13666984064E+03  0.00000000000E+00 0.  1.
         21    1    1    2  504  502  0.47344220557E+02 -0.11861824902E+02  0.44008030769E+02  0.65718223366E+02  0.00000000000E+00 0.  1.
         21    1    1    2  505  501  0.33647768191E+02 -0.10389340831E+02  0.15804654117E+03  0.16192226494E+03  0.00000000000E+00 0. -1.
          2    1    1    2  501    0  0.17731370274E+02  0.63369948556E+02 -0.66510956473E+02  0.93562060702E+02  0.00000000000E+00 0. -1.
<scales pt_clust_3="71.77082" pt_clust_4="14000.00000" pt_clust_5="35.21521" pt_clust_6="65.86345"></scales>
<clustering>
<clus scale="   35.215">  1  5  2 -1</clus>
<clus scale="   65.863">  2  6  1 -1</clus>
<clus scale="   71.771">  2  3  1 -1</clus>
<clus scale="   35.215">  1  3  2 -1</clus>
</clustering>
</event>
<event>
 6    0  0.6851428E+002  0.7725452E+02  0.7546771E-02  0.1337028E+00
         21   -1    0    0  504  502  0.00000000000E+00  0.00000000000E+00  0.75172376209E+02  0.75172376209E+02  0.00000000000E+00 0.  1.
          2   -1    0    0  503    0 -0.00000000000E+00 -0.00000000000E+00 -0.18813545784E+04  0.18813545784E+04  0.00000000000E+00 0.  1.
         21    1    1    2  503  502  0.59474729089E+01  0.86357005392E+02 -0.42201342546E+02  0.96300872929E+02  0.00000000000E+00 0.  1.
         21    1    1    2  504  505  0.67727680862E+02 -0.55099919914E+02 -0.29082773088E+02  0.92026341989E+02  0.00000000000E+00 0.  1.
         21    1    1    2  505  501 -0.44531265141E+02 -0.47311539352E+02 -0.47525181575E+02  0.80498808778E+02  0.00000000000E+00 0.  1.
          2    1    1    2  501    0 -0.29143888630E+02  0.16054453874E+02 -0.16873729050E+04  0.16877009309E+04  0.00000000000E+00 0.  1.
<scales pt_clust_3="77.25452" pt_clust_4="14000.00000" pt_clust_5="68.53987" pt_clust_6="33.27329"></scales>
<clustering>
<clus scale="   33.273">  2  6  1 -1</clus>
<clus scale="   68.540">  2  5  1 -1</clus>
<clus scale="   77.255">  2  3  1 -1</clus>
<clus scale="   77.255">  1  3  2 -1</clus>
</clustering>
</event>
<event>
 6    0  0.6851428E+002  0.8725639E+02  0.7546771E-02  0.1309635E+00
          2   -1    0    0  504    0 -0.00000000000E+00  0.00000000000E+00  0.42151349841E+03  0.42151349841E+03  0.00000000000E+00 0.  1.
         21   -1    0    0  505  502  0.00000000000E+00 -0.00000000000E+00 -0.14916606077E+03  0.14916606077E+03  0.00000000000E+00 0.  1.
         21    1    1    2  503  502 -0.51318733022E+02  0.17560690332E+02 -0.56140210654E+02  0.78062240912E+02  0.00000000000E+00 0.  1.
         21    1    1    2  504  503  0.80192521274E+01  0.89277603790E+02 -0.19195830512E+02  0.91669399760E+02  0.00000000000E+00 0.  1.
         21    1    1    2  505  501 -0.89198926930E+01 -0.76497924520E+02  0.38841469425E+02  0.86256342889E+02  0.00000000000E+00 0.  1.
          2    1    1    2  501    0  0.52219373588E+02 -0.30340369602E+02  0.30884200938E+03  0.31469157562E+03  0.00000000000E+00 0.  1.
<scales pt_clust_3="54.24012" pt_clust_4="87.25639" pt_clust_5="14000.00000" pt_clust_6="58.49908"></scales>
<clustering>
<clus scale="   54.240">  2  3  1 -1</clus>
<clus scale="   58.499">  1  6  2 -1</clus>
<clus scale="   87.256">  2  4  1 -1</clus>
<clus scale="   54.240">  2  3  1 -1</clus>
</clustering>
</event>
<event>
 6    0  0.6851428E+002  0.1645952E+03  0.7546771E-02  0.1183604E+00
         -2   -1    0    0    0  501 -0.00000000000E+00  0.00000000000E+00  0.64917706855E+03  0.64917706855E+03  0.00000000000E+00 0.  1.
         21   -1    0    0  503  502  0.00000000000E+00 -0.00000000000E+00 -0.54214408173E+02  0.54214408173E+02  0.00000000000E+00 0.  1.
         21    1    1    2  503  505 -0.73743211092E+01  0.90125521787E+02  0.78317165833E+02  0.11962678945E+03  0.00000000000E+00 0.  1.
         21    1    1    2  504  501  0.16831789921E+02  0.25640727480E+02 -0.13421250162E+01  0.30701097003E+02  0.00000000000E+00 0.  1.
         21    1    1    2  505  504  0.30730476637E+02  0.16365490949E+02  0.30160782817E+02  0.46063698381E+02  0.00000000000E+00 0.  1.
         -2    1    1    2    0  502 -0.40187945449E+02 -0.13213174022E+03  0.48782683675E+03  0.50699989189E+03  0.00000000000E+00 0.  1.
<scales pt_clust_3="64.32779" pt_clust_4="30.20495" pt_clust_5="64.32779" pt_clust_6="138.10817"></scales>
<clustering>
<clus scale="   30.205">  4  5 -1 -1</clus>
<clus scale="   64.328">  3  4 -1 -1</clus>
<clus scale="  138.108">  1  6  2 -1</clus>
<clus scale="  164.595">  2  3  1 -1</clus>
</clustering>
</event>
<event>
 6    0  0.6851428E+002  0.3360022E+03  0.7546771E-02  0.1068512E+00
         21   -1    0    0  501  502  0.00000000000E+00  0.00000000000E+00  0.21106877332E+03  0.21106877332E+03  0.00000000000E+00 0. -1.
          2   -1    0    0  505    0 -0.00000000000E+00 -0.00000000000E+00 -0.20338346639E+04  0.20338346639E+04  0.00000000000E+00 0. -1.
         21    1    1    2  503  502 -0.15593861453E+03 -0.94482379203E+02 -0.84496116642E+02  0.20095612757E+03  0.00000000000E+00 0. -1.
         21    1    1    2  504  503  0.41967069974E+03  0.10818490787E+03 -0.22861673962E+03  0.48999294296E+03  0.00000000000E+00 0. -1.
         21    1    1    2  505  504  0.30870198796E+02  0.31460475111E+02 -0.62809088268E+02  0.76731429264E+02  0.00000000000E+00 0.  1.
          2    1    1    2  501    0 -0.29460228401E+03 -0.45163003779E+02 -0.14468439461E+04  0.14772229374E+04  0.00000000000E+00 0. -1.
<scales pt_clust_3="182.32875" pt_clust_4="37.40811" pt_clust_5="37.40811" pt_clust_6="314.86177"></scales>
<clustering>
<clus scale="   37.408">  4  5 -1 -1</clus>
<clus scale="  182.329">  1  3  2 -1</clus>
<clus scale="  314.862">  2  6  1 -1</clus>
<clus scale="  182.329">  1  3  2 -1</clus>
</clustering>
</event>
<event>
 6    0  0.6851428E+002  0.1878902E+03  0.7546771E-02  0.1160378E+00
          1   -1    0    0  504    0 -0.00000000000E+00  0.00000000000E+00  0.31986502151E+03  0.31986502151E+03  0.00000000000E+00 0. -1.
         21   -1    0    0  503  502  0.00000000000E+00 -0.00000000000E+00 -0.27379359464E+03  0.27379359464E+03  0.00000000000E+00 0.  1.
         21    1    1    2  503  505 -0.46144401052E+02 -0.95306931655E+01 -0.63300237140E+02  0.78911722086E+02  0.00000000000E+00 0.  1.
         21    1    1    2  504  502 -0.68594619690E-01  0.60106298932E+02 -0.58594367882E+02  0.83940882911E+02  0.00000000000E+00 0.  1.
         21    1    1    2  505  501 -0.14508113589E+03  0.37382432065E+02 -0.16702427621E+02  0.15074797944E+03  0.00000000000E+00 0.  1.
          1    1    1    2  501    0  0.19129413156E+03 -0.87958037831E+02  0.18466845951E+03  0.28005803171E+03  0.00000000000E+00 0. -1.
<scales pt_clust_3="47.11836" pt_clust_4="59.04770" pt_clust_5="187.89021" pt_clust_6="14000.00000"></scales>
<clustering>
<clus scale="   47.118">  2  3  1 -1</clus>
<clus scale="   59.048">  2  4  1 -1</clus>
<clus scale="  187.890">  2  5  1 -1</clus>
<clus scale="   47.118">  2  3  1 -1</clus>
</clustering>
</event>
<event>
 6    0  0.6851428E+002  0.9834207E+02  0.7546771E-02  0.1283821E+00
         21   -1    0    0  501  502  0.00000000000E+00  0.00000000000E+00  0.25545084270E+04  0.25545084270E+04  0.00000000000E+00 0. -1.
          3   -1    0    0  503    0 -0.00000000000E+00 -0.00000000000E+00 -0.41163511175E+02  0.41163511175E+02  0.00000000000E+00 0.  1.
         21    1    1    2  503  505  0.41994972738E+02 -0.54315511211E+02  0.30909975226E+03  0.31663292523E+03  0.00000000000E+00 0.  1.
         21    1    1    2  504  502 -0.48810546088E+02  0.96607712193E+01  0.47864490110E+03  0.48122421100E+03  0.00000000000E+00 0. -1.
         21    1    1    2  505  504  0.18987415416E+02 -0.63164204300E+02  0.16780557736E+04  0.16793514873E+04  0.00000000000E+00 0. -1.
          3    1    1    2  501    0 -0.12171842066E+02  0.10781894429E+03  0.47544488854E+02  0.11846331461E+03  0.00000000000E+00 0.  1.
<scales pt_clust_3="98.34207" pt_clust_4="49.75741" pt_clust_5="59.02459" pt_clust_6="14000.00000"></scales>
<clustering>
<clus scale="   49.757">  1  4  2 -1</clus>
<clus scale="   59.025">  1  5  2 -1</clus>
<clus scale="   98.342">  1  3  2 -1</clus>
<clus scale="   49.757">  1  3  2 -1</clus>
</clustering>
</event>
<event>
 6    0  0.6851428E+002  0.2298600E+03  0.7546771E-02  0.1126738E+00
          2   -1    0    0  503    0 -0.00000000000E+00  0.00000000000E+00  0.22699872266E+04  0.22699872266E+04  0.00000000000E+00 0. -1.
         21   -1    0    0  505  502  0.00000000000E+00 -0.00000000000E+00 -0.10466301445E+03  0.10466301445E+03  0.00000000000E+00 0.  1.
         21    1    1    2  503  502 -0.44850534063E+02 -0.58451338080E+02  0.30574428468E+03  0.31449594106E+03  0.00000000000E+00 0.  1.
         21    1    1    2  504  501 -0.18960865175E+03  0.10392169137E+03  0.27197319932E+03  0.34744867233E+03  0.00000000000E+00 0.  1.
         21    1    1    2  505  504  0.26735985208E+03  0.55136206359E+02  0.24766905196E+03  0.36859361234E+03  0.00000000000E+00 0.  1.
          2    1    1    2  501    0 -0.32900666266E+02 -0.10060655965E+03  0.13399376762E+04  0.13441120153E+04  0.00000000000E+00 0. -1.
<scales pt_clust_3="73.67584" pt_clust_4="14000.00000" pt_clust_5="229.85998" pt_clust_6="154.34919"></scales>
<clustering>
<clus scale="   73.676">  1  3  2 -1</clus>
<clus scale="  154.349">  1  6  2 -1</clus>
<clus scale="  229.860">  2  5  1 -1</clus>
<clus scale="  229.860">  2  3  1 -1</clus>
</clustering>
</event>
<event>
 6    0  0.6851428E+002  0.9227823E+02  0.7546771E-02  0.1297427E+00
         21   -1    0    0  504  502  0.00000000000E+00  0.00000000000E+00  0.15113044095E+04  0.15113044095E+04  0.00000000000E+00 0. -1.
          2   -1    0    0  503    0 -0.00000000000E+00 -0.00000000000E+00 -0.15983886008E+03  0.15983886008E+03  0.00000000000E+00 0.  1.
         21    1    1    2  503  505  0.14572943824E+02 -0.11198241442E+03  0.51724255058E+03  0.52942637634E+03  0.00000000000E+00 0. -1.
         21    1    1    2  504  501 -0.16170322863E+02  0.81071684576E+02  0.59803313570E+03  0.60371990921E+03  0.00000000000E+00 0. -1.
         21    1    1    2  505  502 -0.47999293528E+02 -0.17793490701E+02  0.37726705650E+03  0.38072427347E+03  0.00000000000E+00 0. -1.
          2    1    1    2  501    0  0.49596672567E+02  0.48704220542E+02 -0.14107719332E+03  0.15727271061E+03  0.00000000000E+00 0.  1.
<scales pt_clust_3="92.27823" pt_clust_4="14000.00000" pt_clust_5="51.19121" pt_clust_6="69.17817"></scales>
<clustering>
<clus scale="   51.191">  1  5  2 -1</clus>
<clus scale="   69.178">  2  6  1 -1</clus>
<clus scale="   92.278">  2  3  1 -1</clus>
<clus scale="   51.191">  1  3  2 -1</clus>
</clustering>
</event>
<event>
 6    0  0.6851428E+002  0.1802001E+03  0.7546771E-02  0.1167610E+00
         21   -1    0    0  505  502  0.00000000000E+00  0.00000000000E+00  0.22305437435E+03  0.22305437435E+03  0.00000000000E+00 0. -1.
          2   -1    0    0  502    0 -0.00000000000E+00 -0.00000000000E+00 -0.64227793678E+03  0.64227793678E+03  0.00000000000E+00 0. -1.
         21    1    1    2  503  501 -0.11799875573E+03  0.44917452944E+02  0.12413045572E+03  0.17705833493E+03  0.00000000000E+00 0. -1.
         21    1    1    2  504  503 -0.58998899571E+02 -0.26258772452E+02  0.13754711545E+01  0.64593228764E+02  0.00000000000E+00 0.  1.
         21    1    1    2  505  504  0.10593772253E+01  0.40601188823E+02  0.73034865277E+01  0.41266447986E+02  0.00000000000E+00 0. -1.
          2    1    1    2  501    0  0.17593827808E+03 -0.59259869315E+02 -0.55203297582E+03  0.58241429945E+03  0.00000000000E+00 0. -1.
<scales pt_clust_3="180.20011" pt_clust_4="61.97773" pt_clust_5="40.61501" pt_clust_6="14000.00000"></scales>
<clustering>
<clus scale="   40.615">  1  5  2 -1</clus>
<clus scale="   61.978">  1  4  2 -1</clus>
<clus scale="  180.200">  1  3  2 -1</clus>
<clus scale="   40.615">  1  3  2 -1</clus>
</clustering>
</event>
<event>
 6    0  0.6851428E+002  0.2077413E+03  0.7546771E-02  0.1143367E+00
          1   -1    0    0  505    0 -0.00000000000E+00  0.00000000000E+00  0.14112188035E+04  0.14112188035E+04  0.00000000000E+00 0.  1.
         21   -1    0    0  503  502  0.00000000000E+00 -0.00000000000E+00 -0.14079599003E+03  0.14079599003E+03  0.00000000000E+00 0.  1.
         21    1    1    2  503  504  0.39434100721E+02 -0.15231214131E+02 -0.83914384554E+01  0.43098195123E+02  0.00000000000E+00 0.  1.
         21    1    1    2  504  501  0.11766009941E+03 -0.19554126978E+03  0.11675932530E+03  0.25634552313E+03  0.00000000000E+00 0.  1.
         21    1    1    2  505  502  0.23468404860E+02  0.17593355017E+03  0.17759924664E+03  0.25108738023E+03  0.00000000000E+00 0.  1.
          1    1    1    2  501    0 -0.18056260499E+03  0.34838933741E+02  0.98445567996E+03  0.10014836950E+04  0.00000000000E+00 0.  1.
<scales pt_clust_3="40.41872" pt_clust_4="40.41872" pt_clust_5="177.49192" pt_clust_6="185.30279"></scales>
<clustering>
<clus scale="   40.419">  3  4 -1 -1</clus>
<clus scale="  177.492">  2  5  1 -1</clus>
<clus scale="  185.303">  1  6  2 -1</clus>
<clus scale="  177.492">  2  3  1 -1</clus>
</clustering>
</event>
<event>
 6    0  0.6851428E+002  0.2121844E+03  0.7546771E-02  0.1139848E+00
         -4   -1    0    0    0  501 -0.00000000000E+00  0.00000000000E+00  0.24737943738E+04  0.24737943738E+04  0.00000000000E+00 0. -1.
         21   -1    0    0  503  502  0.00000000000E+00 -0.00000000000E+00 -0.63964459130E+02  0.63964459130E+02  0.00000000000E+00 0. -1.
         21    1    1    2  503  504 -0.21992104440E+03 -0.68343243423E+02  0.22341888926E+03  0.32086144170E+03  0.00000000000E+00 0. -1.
         21    1    1    2  504  501  0.98803783261E+02  0.51510791112E+02  0.39915327609E+03  0.41441390783E+03  0.00000000000E+00 0. -1.
         21    1    1    2  505  502  0.13956161378E+02 -0.32671653838E+02  0.50646686843E+02  0.61865162193E+02  0.00000000000E+00 0. -1.
         -4    1    1    2    0  505  0.10716109976E+03  0.49504106149E+02  0.17366110625E+04  0.17406183212E+04  0.00000000000E+00 0. -1.
<scales pt_clust_3="14000.00000" pt_clust_4="111.16485" pt_clust_5="35.52761" pt_clust_6="212.18440"></scales>
<clustering>
<clus scale="   35.528">  2  5  1 -1</clus>
<clus scale="  111.165">  1  4  2 -1</clus>
<clus scale="  212.184">  1  6  2 -1</clus>
<clus scale="   35.528">  2  3  1 -1</clus>
</clustering>
</event>
<event>
 6    0  0.6851428E+002  0.1378094E+03  0.7546771E-02  0.1216307E+00
         21   -1    0    0  503  502  0.00000000000E+00  0.00000000000E+00  0.30002848111E+02  0.30002848111E+02  0.00000000000E+00 0. -1.
          2   -1    0    0  502    0 -0.00000000000E+00 -0.00000000000E+00 -0.29130233253E+04  0.29130233253E+04  0.00000000000E+00 0.  1.
         21    1    1    2  503  504 -0.69672305142E+01 -0.69412463589E+02 -0.82249203206E+02  0.10784972800E+03  0.00000000000E+00 0. -1.
         21    1    1    2  504  505  0.45052692263E+02 -0.52893228947E+02 -0.10919093714E+03  0.12942217547E+03  0.00000000000E+00 0. -1.
         21    1    1    2  505  501 -0.62961645935E+02  0.10410705565E+03 -0.52339133480E+03  0.53734619869E+03  0.00000000000E+00 0. -1.
          2    1    1    2  501    0  0.24876184186E+02  0.18198636882E+02 -0.21681890020E+04  0.21684080712E+04  0.00000000000E+00 0.  1.
<scales pt_clust_3="55.75778" pt_clust_4="55.75778" pt_clust_5="125.50687" pt_clust_6="30.82231"></scales>
<clustering>
<clus scale="   30.822">  2  6  1 -1</clus>
<clus scale="   55.758">  3  4 -1 -1</clus>
<clus scale="  125.507">  2  5  1 -1</clus>
<clus scale="  137.809">  1  3  2 -1</clus>
</clustering>
</event>
<event>
 6    0  0.6851428E+002  0.7802175E+02  0.7546771E-02  0.1334761E+00
         21   -1    0    0  503  502  0.00000000000E+00  0.00000000000E+00  0.73459066134E+03  0.73459066134E+03  0.00000000000E+00 0.  1.
          3   -1    0    0  504    0 -0.00000000000E+00 -0.00000000000E+00 -0.85726022521E+02  0.85726022521E+02  0.00000000000E+00 0.  1.
         21    1    1    2  503  501  0.42121739152E+02  0.36733817177E+02  0.32919491697E+03  0.33390553693E+03  0.00000000000E+00 0.  1.
         21    1    1    2  504  505  0.21666348843E+02 -0.64948234111E+02  0.15779977938E+03  0.17201300578E+03  0.00000000000E+00 0.  1.
         21    1    1    2  505  502 -0.46864603409E+02 -0.49315567794E+02  0.21057233807E+03  0.22128946165E+03  0.00000000000E+00 0.  1.
          3    1    1    2  501    0 -0.16923484586E+02  0.77529984728E+02 -0.48702395590E+02  0.93108679502E+02  0.00000000000E+00 0.  1.
<scales pt_clust_3="55.88930" pt_clust_4="14000.00000" pt_clust_5="38.32264" pt_clust_6="78.02175"></scales>
<clustering>
<clus scale="   55.889">  1  3  2 -1</clus>
<clus scale="   38.323">  1  5  2 -1</clus>
<clus scale="   78.022">  2  6  1 -1</clus>
<clus scale="   55.889">  1  3  2 -1</clus>
</clustering>
</event>
<event>
 6    0  0.6851428E+002  0.1506444E+03  0.7546771E-02  0.1199683E+00
         21   -1    0    0  505  502  0.00000000000E+00  0.00000000000E+00  0.39639161132E+04  0.39639161132E+04  0.00000000000E+00 0.  1.
         -2   -1    0    0    0  501 -0.00000000000E+00 -0.00000000000E+00 -0.50561328793E+02  0.50561328793E+02  0.00000000000E+00 0. -1.
         21    1    1    2  503  501 -0.77490425519E+02  0.56886872973E+02  0.74447601823E+03  0.75065666192E+03  0.00000000000E+00 0.  1.
         21    1    1    2  504  502  0.88183098586E+02 -0.10606495477E+03  0.24968923510E+04  0.25006993913E+04  0.00000000000E+00 0.  1.
         21    1    1    2  505  503 -0.41879244586E+02  0.65256610250E+02  0.70835505384E+03  0.71258626046E+03  0.00000000000E+00 0.  1.
         -2    1    1    2    0  504  0.31186571519E+02 -0.16078528457E+02 -0.36368638590E+02  0.50535128310E+02  0.00000000000E+00 0. -1.
<scales pt_clust_3="31.02823" pt_clust_4="146.62935" pt_clust_5="31.02823" pt_clust_6="35.08734"></scales>
<clustering>
<clus scale="   31.028">  3  5 -1 -1</clus>
<clus scale="   35.087">  2  6  1 -1</clus>
<clus scale="  146.629">  1  4  2 -1</clus>
<clus scale="  146.629">  1  3  2 -1</clus>
</clustering>
</event>
<event>
 6    0  0.6851428E+002  0.9344448E+02  0.7546771E-02  0.1294718E+00
          1   -1    0    0  504    0 -0.00000000000E+00  0.00000000000E+00  0.15871993912E+04  0.15871993912E+04  0.00000000000E+00 0. -1.
         21   -1    0    0  503  502  0.00000000000E+00 -0.00000000000E+00 -0.14023196415E+03  0.14023196415E+03  0.00000000000E+00 0.  1.
         21    1    1    2  503  501 -0.41516153496E+02  0.57506596146E+02 -0.10072726675E+03  0.12319327039E+03  0.00000000000E+00 0.  1.
         21    1    1    2  504  505  0.14834834275E+01 -0.32067175547E+02  0.55108964434E+02  0.63776974149E+02  0.00000000000E+00 0. -1.
         21    1    1    2  505  502 -0.51499672932E+02 -0.34477099871E+02  0.20168695442E+02  0.65174097642E+02  0.00000000000E+00 0. -1.
          1    1    1    2  501    0  0.91532343001E+02  0.90376792719E+01  0.14724170339E+04  0.14752870132E+04  0.00000000000E+00 0. -1.
<scales pt_clust_3="93.44448" pt_clust_4="32.10147" pt_clust_5="62.44343" pt_clust_6="14000.00000"></scales>
<clustering>
<clus scale="   32.101">  1  4  2 -1</clus>
<clus scale="   62.443">  2  5  1 -1</clus>
<clus scale="   93.444">  2  3  1 -1</clus>
<clus scale="   62.443">  2  3  1 -1</clus>
</clustering>
</event>
<event>
 6    0  0.6851428E+002  0.1206950E+03  0.7546771E-02  0.1241955E+00
          2   -1    0    0  504    0 -0.00000000000E+00  0.00000000000E+00  0.38645852397E+04  0.38645852397E+04  0.00000000000E+00 0.  1.
         21   -1    0    0  503  502  0.00000000000E+00 -0.00000000000E+00 -0.69944027080E+01  0.69944027080E+01  0.00000000000E+00 0. -1.
         21    1    1    2  503  501 -0.74210594100E+02  0.97587932170E+01  0.11830996514E+04  0.11854649854E+04  0.00000000000E+00 0.  1.
         21    1    1    2  504  505  0.10767107047E+03  0.67640932090E+02  0.12714912791E+04  0.12778334899E+04  0.00000000000E+00 0. -1.
         21    1    1    2  505  502 -0.38484103787E+01 -0.55311524056E+02  0.32849044177E+03  0.33313682668E+03  0.00000000000E+00 0. -1.
          2    1    1    2  501    0 -0.29612065989E+02 -0.22088201251E+02  0.10745094647E+04  0.10751443405E+04  0.00000000000E+00 0.  1.
<scales pt_clust_3="35.99055" pt_clust_4="109.28324" pt_clust_5="55.44524" pt_clust_6="35.99055"></scales>
<clustering>
<clus scale="   35.991">  3  6 -1 -1</clus>
<clus scale="   55.445">  2  5  1 -1</clus>
<clus scale="  109.283">  2  4  1 -1</clus>
<clus scale="   55.445">  2  3  1 -1</clus>
</clustering>
</event>
<event>
 6    0  0.6851428E+002  0.1039226E+03  0.7546771E-02  0.1272257E+00
          2   -1    0    0  503    0 -0.00000000000E+00  0.00000000000E+00  0.12801565393E+04  0.12801565393E+04  0.00000000000E+00 0.  1.
         21   -1    0    0  505  502  0.00000000000E+00 -0.00000000000E+00 -0.26696790446E+03  0.26696790446E+03  0.00000000000E+00 0.  1.
         21    1    1    2  503  504 -0.23557958851E+02 -0.71534763459E+02  0.20191890548E+02  0.77973792086E+02  0.00000000000E+00 0.  1.
         21    1    1    2  504  502  0.52004074391E+02  0.40663678284E+00 -0.14621436963E+03  0.15518772823E+03  0.00000000000E+00 0.  1.
         21    1    1    2  505  501  0.72547431353E+02  0.41869527543E+02 -0.64468560777E+02  0.10569949130E+03  0.00000000000E+00 0.  1.
          2    1    1    2  501    0 -0.10099354689E+03  0.29258599133E+02  0.12036796747E+04  0.12082634321E+04  0.00000000000E+00 0.  1.
<scales pt_clust_3="72.22113" pt_clust_4="52.00566" pt_clust_5="14000.00000" pt_clust_6="103.92263"></scales>
<clustering>
<clus scale="   52.006">  2  4  1 -1</clus>
<clus scale="   72.221">  2  3  1 -1</clus>
<clus scale="  103.923">  1  6  2 -1</clus>
<clus scale="   52.006">  2  3  1 -1</clus>
</clustering>
</event>
<event>
 6    0  0.6851428E+002  0.7460158E+03  0.7546771E-02  0.9641622E-01
         -4   -1    0    0    0  501 -0.00000000000E+00  0.00000000000E+00  0.24201200053E+04  0.24201200053E+04  0.00000000000E+00 0.  1.
         21   -1    0    0  504  502  0.00000000000E+00 -0.00000000000E+00 -0.88449884954E+03  0.88449884954E+03  0.00000000000E+00 0.  1.
         21    1    1    2  503  505  0.38420555653E+03  0.44357842240E+02  0.12025115565E+03  0.40502082450E+03  0.00000000000E+00 0.  1.
         21    1    1    2  504  501 -0.28898730355E+02 -0.62434762276E+03  0.72440018872E+03  0.95676576238E+03  0.00000000000E+00 0.  1.
         21    1    1    2  505  502 -0.42182979789E+03  0.69329599000E+03 -0.35704588395E+03  0.88661235688E+03  0.00000000000E+00 0.  1.
         -4    1    1    2    0  503  0.66522971711E+02 -0.11330620948E+03  0.10480156953E+04  0.10562199110E+04  0.00000000000E+00 0.  1.
<scales pt_clust_3="397.62003" pt_clust_4="746.01578" pt_clust_5="14000.00000" pt_clust_6="131.39103"></scales>
<clustering>
<clus scale="  131.391">  1  6  2 -1</clus>
<clus scale="  397.620">  1  3  2 -1</clus>
<clus scale="  746.016">  1  4  2 -1</clus>
<clus scale="  746.016">  2  3  1 -1</clus>
</clustering>
</event>
<event>
 6    0  0.6851428E+002  0.1015100E+03  0.7546771E-02  0.1277152E+00
         21   -1    0    0  503  502  0.00000000000E+00  0.00000000000E+00  0.12161180615E+03  0.12161180615E+03  0.00000000000E+00 0.  1.
          2   -1    0    0  504    0 -0.00000000000E+00 -0.00000000000E+00 -0.28698353320E+03  0.28698353320E+03  0.00000000000E+00 0. -1.
         21    1    1    2  503  505  0.48152005680E+02  0.22103505429E+02  0.24619812428E+02  0.58423589134E+02  0.00000000000E+00 0.  1.
         21    1    1    2  504  502 -0.93374522502E+01 -0.66311180884E+02 -0.16134644797E+02  0.68881691961E+02  0.00000000000E+00 0. -1.
         21    1    1    2  505  501  0.37972870332E+02  0.76404342100E+02  0.34665583303E+01  0.85390745398E+02  0.00000000000E+00 0.  1.
          2    1    1    2  501    0 -0.76787423762E+02 -0.32196666645E+02 -0.17732345301E+03  0.19589931286E+03  0.00000000000E+00 0. -1.
<scales pt_clust_3="41.49267" pt_clust_4="66.96537" pt_clust_5="41.49267" pt_clust_6="86.78626"></scales>
<clustering>
<clus scale="   41.493">  3  5 -1 -1</clus>
<clus scale="   66.965">  1  4  2 -1</clus>
<clus scale="   86.786">  2  6  1 -1</clus>
<clus scale="   66.965">  1  3  2 -1</clus>
</clustering>
</event>
<event>
 6    0  0.6851428E+002  0.9691235E+02  0.7546771E-02  0.1286926E+00
         -2   -1    0    0    0  501 -0.00000000000E+00  0.00000000000E+00  0.29240179321E+03  0.29240179321E+03  0.00000000000E+00 0. -1.
         21   -1    0    0  505  502  0.00000000000E+00 -0.00000000000E+00 -0.12928161080E+03  0.12928161080E+03  0.00000000000E+00 0. -1.
         21    1    1    2  503  504 -0.54054337205E+02  0.31284782701E+02 -0.29793633204E+02  0.69197323494E+02  0.00000000000E+00 0. -1.
         21    1    1    2  504  502  0.24705527165E+02  0.24200857903E+02 -0.42459250983E+02  0.54761597765E+02  0.00000000000E+00 0. -1.
         21    1    1    2  505  501 -0.38233979603E+01  0.48972054233E+02  0.14601231978E+02  0.51245257762E+02  0.00000000000E+00 0. -1.
         -2    1    1    2    0  503  0.33172207999E+02 -0.10445769484E+03  0.22077183461E+03  0.24647922499E+03  0.00000000000E+00 0. -1.
<scales pt_clust_3="14000.00000" pt_clust_4="34.58388" pt_clust_5="54.49787" pt_clust_6="96.91235"></scales>
<clustering>
<clus scale="   34.584">  2  4  1 -1</clus>
<clus scale="   54.498">  2  5  1 -1</clus>
<clus scale="   96.912">  1  6  2 -1</clus>
<clus scale="   34.584">  2  3  1 -1</clus>
</clustering>
</event>
<event>
 6    0  0.6851428E+002  0.1177793E+03  0.7546771E-02  0.1246806E+00
          2   -1    0    0  505    0 -0.00000000000E+00  0.00000000000E+00  0.14166428035E+04  0.14166428035E+04  0.00000000000E+00 0.  1.
         21   -1    0    0  504  502  0.00000000000E+00 -0.00000000000E+00 -0.32764506047E+03  0.32764506047E+03  0.00000000000E+00 0.  1.
         21    1    1    2  503  502  0.10751528136E+03 -0.10219856020E+03  0.10090810915E+03  0.17940604205E+03  0.00000000000E+00 0.  1.
         21    1    1    2  504  501 -0.60854739043E+02  0.70630731408E+02 -0.26396329343E+03  0.27994395825E+03  0.00000000000E+00 0.  1.
         21    1    1    2  505  503 -0.87715150219E+02 -0.81407641088E+02  0.26717712947E+03  0.29275377046E+03  0.00000000000E+00 0.  1.
          2    1    1    2  501    0  0.41054607904E+02  0.11297546988E+03  0.98487579788E+03  0.99218409324E+03  0.00000000000E+00 0.  1.
<scales pt_clust_3="83.21459" pt_clust_4="93.23089" pt_clust_5="117.77930" pt_clust_6="14000.00000"></scales>
<clustering>
<clus scale="   93.231">  2  4  1 -1</clus>
<clus scale="   83.215">  2  3  1 -1</clus>
<clus scale="  117.779">  2  5  1 -1</clus>
<clus scale="   93.231">  2  3  1 -1</clus>
</clustering>
</event>
<event>
 6    0  0.6851428E+002  0.2963272E+03  0.7546771E-02  0.1087091E+00
         21   -1    0    0  505  502  0.00000000000E+00  0.00000000000E+00  0.12920606580E+03  0.12920606580E+03  0.00000000000E+00 0. -1.
          2   -1    0    0  504    0 -0.00000000000E+00 -0.00000000000E+00 -0.13746471659E+04  0.13746471659E+04  0.00000000000E+00 0.  1.
         21    1    1    2  503  501 -0.57362321311E+01 -0.11664703423E+03 -0.94581359864E+02  0.15028329444E+03  0.00000000000E+00 0. -1.
         21    1    1    2  504  502 -0.74081569729E+02  0.26936892479E+01 -0.16792424011E+03  0.18355894245E+03  0.00000000000E+00 0. -1.
         21    1    1    2  505  503  0.55950353446E+02 -0.15933822940E+03 -0.21543346478E+02  0.17024461570E+03  0.00000000000E+00 0. -1.
          2    1    1    2  501    0  0.23867448414E+02  0.27329157438E+03 -0.96139215368E+03  0.99976637915E+03  0.00000000000E+00 0.  1.
<scales pt_clust_3="86.12827" pt_clust_4="74.13053" pt_clust_5="86.12827" pt_clust_6="277.93158"></scales>
<clustering>
<clus scale="   74.131">  2  4  1 -1</clus>
<clus scale="   86.128">  3  5 -1 -1</clus>
<clus scale="  277.932">  2  6  1 -1</clus>
<clus scale="  296.327">  1  3  2 -1</clus>
</clustering>
</event>
<event>
 6    0  0.6851428E+002  0.1176067E+03  0.7546771E-02  0.1247098E+00
         21   -1    0    0  505  502  0.00000000000E+00  0.00000000000E+00  0.10087803815E+03  0.10087803815E+03  0.00000000000E+00 0. -1.
          1   -1    0    0  503    0 -0.00000000000E+00 -0.00000000000E+00 -0.11210189029E+04  0.11210189029E+04  0.00000000000E+00 0. -1.
         21    1    1    2  503  504  0.35655649934E+02 -0.91808730022E+02 -0.67355691188E+02  0.11931872198E+03  0.00000000000E+00 0. -1.
         21    1    1    2  504  502 -0.23833831834E+02  0.24536338792E+02  0.73647011786E+01  0.34990317013E+02  0.00000000000E+00 0. -1.
         21    1    1    2  505  501 -0.16771752591E+02 -0.53998720164E+02  0.34051758385E+02  0.66005118843E+02  0.00000000000E+00 0. -1.
          1    1    1    2  501    0  0.49499344912E+01  0.12127111140E+03 -0.99420163308E+03  0.10015827832E+04  0.00000000000E+00 0. -1.
<scales pt_clust_3="117.60666" pt_clust_4="34.20648" pt_clust_5="49.96681" pt_clust_6="14000.00000"></scales>
<clustering>
<clus scale="   34.206">  1  4  2 -1</clus>
<clus scale="   49.967">  1  5  2 -1</clus>
<clus scale="  117.607">  1  3  2 -1</clus>
<clus scale="   34.206">  1  3  2 -1</clus>
</clustering>
</event>
<event>
 6    0  0.6851428E+002  0.8364808E+02  0.7546771E-02  0.1319006E+00
         21   -1    0    0  504  502  0.00000000000E+00  0.00000000000E+00  0.68286537792E+03  0.68286537792E+03  0.00000000000E+00 0.  1.
          1   -1    0    0  505    0 -0.00000000000E+00 -0.00000000000E+00 -0.67099194542E+03  0.67099194542E+03  0.00000000000E+00 0.  1.
         21    1    1    2  503  502 -0.74398156410E+01  0.45953874722E+02  0.32566699147E+03  0.32897735301E+03  0.00000000000E+00 0.  1.
         21    1    1    2  504  501  0.34739588452E+02 -0.63010048039E+02  0.45506303201E+02  0.85134768401E+02  0.00000000000E+00 0.  1.
         21    1    1    2  505  503  0.43336635443E+02 -0.29287712418E+02  0.28508618070E+03  0.28984472480E+03  0.00000000000E+00 0.  1.
          1    1    1    2  501    0 -0.70636408254E+02  0.46343885735E+02 -0.64438604287E+03  0.64990047712E+03  0.00000000000E+00 0.  1.
<scales pt_clust_3="46.55222" pt_clust_4="14000.00000" pt_clust_5="38.14152" pt_clust_6="83.64808"></scales>
<clustering>
<clus scale="   46.552">  1  3  2 -1</clus>
<clus scale="   38.142">  1  5  2 -1</clus>
<clus scale="   83.648">  2  6  1 -1</clus>
<clus scale="   46.552">  1  3  2 -1</clus>
</clustering>
</event>
<event>
 6    0  0.6851428E+002  0.9682742E+02  0.7546771E-02  0.1287113E+00
         21   -1    0    0  503  502  0.00000000000E+00  0.00000000000E+00  0.17728444049E+03  0.17728444049E+03  0.00000000000E+00 0.  1.
          2   -1    0    0  505    0 -0.00000000000E+00 -0.00000000000E+00 -0.97615841142E+03  0.97615841142E+03  0.00000000000E+00 0.  1.
         21    1    1    2  503  504 -0.13040111176E+03  0.27224321251E+02 -0.18952445835E+03  0.23165736321E+03  0.00000000000E+00 0.  1.
         21    1    1    2  504  501  0.59017148629E+02 -0.15593046321E+02 -0.19607893032E+02  0.64114244868E+02  0.00000000000E+00 0.  1.
         21    1    1    2  505  502  0.68858706122E+02 -0.65965863390E+02  0.11581535952E+03  0.15002071204E+03  0.00000000000E+00 0.  1.
          2    1    1    2  501    0  0.25252570129E+01  0.54334588461E+02 -0.70555697907E+03  0.70765053179E+03  0.00000000000E+00 0.  1.
<scales pt_clust_3="96.82742" pt_clust_4="59.83863" pt_clust_5="14000.00000" pt_clust_6="54.39324"></scales>
<clustering>
<clus scale="   54.393">  2  6  1 -1</clus>
<clus scale="   59.839">  2  4  1 -1</clus>
<clus scale="   96.827">  2  3  1 -1</clus>
<clus scale="   96.827">  1  3  2 -1</clus>
</clustering>
</event>
<event>
 6    0  0.6851428E+002  0.9985790E+02  0.7546771E-02  0.1280595E+00
          1   -1    0    0  504    0 -0.00000000000E+00  0.00000000000E+00  0.14238313729E+04  0.14238313729E+04  0.00000000000E+00 0.  1.
         21   -1    0    0  505  502  0.00000000000E+00 -0.00000000000E+00 -0.33085130634E+03  0.33085130634E+03  0.00000000000E+00 0.  1.
         21    1    1    2  503  502  0.57829047837E+01  0.32514435535E+02 -0.29612196358E+03  0.29795779536E+03  0.00000000000E+00 0.  1.
         21    1    1    2  504  503  0.60899283375E+02 -0.24754892630E+02  0.27163081358E+02  0.71129181168E+02  0.00000000000E+00 0.  1.
         21    1    1    2  505  501 -0.70551740729E+02 -0.10441147389E+03  0.41449452868E+03  0.43322628995E+03  0.00000000000E+00 0.  1.
          1    1    1    2  501    0  0.38695525697E+01  0.96651930985E+02  0.94744442014E+03  0.95236941280E+03  0.00000000000E+00 0.  1.
<scales pt_clust_3="33.02470" pt_clust_4="64.76011" pt_clust_5="99.85790" pt_clust_6="14000.00000"></scales>
<clustering>
<clus scale="   33.025">  2  3  1 -1</clus>
<clus scale="   64.760">  2  4  1 -1</clus>
<clus scale="   99.858">  2  5  1 -1</clus>
<clus scale="   33.025">  2  3  1 -1</clus>
</clustering>
</event>
<event>
 6    0  0.6851428E+002  0.1481260E+03  0.7546771E-02  0.1202795E+00
          2   -1    0    0  504    0 -0.00000000000E+00  0.00000000000E+00  0.14173868038E+04  0.14173868038E+04  0.00000000000E+00 0. -1.
         21   -1    0    0  501  502  0.00000000000E+00 -0.00000000000E+00 -0.48461581155E+02  0.48461581155E+02  0.00000000000E+00 0. -1.
         21    1    1    2  503  505 -0.39946879981E+02 -0.38106186167E+02  0.64526055231E+02  0.84920235798E+02  0.00000000000E+00 0. -1.
         21    1    1    2  504  503 -0.47777629913E+02  0.14769207337E+03  0.17567862784E+03  0.23443257183E+03  0.00000000000E+00 0. -1.
         21    1    1    2  505  502  0.29620864313E+02  0.25405471190E+02  0.10024472124E+03  0.10757247653E+03  0.00000000000E+00 0. -1.
          2    1    1    2  501    0  0.58103645581E+02 -0.13499135840E+03  0.10284758183E+04  0.10389231008E+04  0.00000000000E+00 0. -1.
<scales pt_clust_3="46.33926" pt_clust_4="14000.00000" pt_clust_5="39.02350" pt_clust_6="148.12603"></scales>
<clustering>
<clus scale="   39.024">  2  5  1 -1</clus>
<clus scale="   46.339">  2  3  1 -1</clus>
<clus scale="  148.126">  1  6  2 -1</clus>
<clus scale="   39.024">  2  3  1 -1</clus>
</clustering>
</event>
<event>
 6    0  0.6851428E+002  0.8675118E+02  0.7546771E-02  0.1310916E+00
          2   -1    0    0  505    0 -0.00000000000E+00  0.00000000000E+00  0.29187006593E+03  0.29187006593E+03  0.00000000000E+00 0.  1.
         21   -1    0    0  503  502  0.00000000000E+00 -0.00000000000E+00 -0.38046161008E+03  0.38046161008E+03  0.00000000000E+00 0. -1.
         21    1    1    2  503  504  0.19173678319E+01 -0.32812962252E+02 -0.20251455575E+03  0.20516459754E+03  0.00000000000E+00 0. -1.
         21    1    1    2  504  501 -0.53296863058E+02 -0.78100909340E+02 -0.10415782720E+03  0.14067395146E+03  0.00000000000E+00 0. -1.
         21    1    1    2  505  502  0.24760196826E+02  0.69926163530E+02 -0.25205980123E+02  0.78345881365E+02  0.00000000000E+00 0. -1.
          2    1    1    2  501    0  0.26619298400E+02  0.40987708062E+02  0.24328681892E+03  0.24814724565E+03  0.00000000000E+00 0.  1.
<scales pt_clust_3="32.86893" pt_clust_4="86.75118" pt_clust_5="14000.00000" pt_clust_6="48.50956"></scales>
<clustering>
<clus scale="   32.869">  2  3  1 -1</clus>
<clus scale="   48.510">  1  6  2 -1</clus>
<clus scale="   86.751">  1  4  2 -1</clus>
<clus scale="   32.869">  2  3  1 -1</clus>
</clustering>
</event>
<event>
 6    0  0.6851428E+002  0.8445670E+02  0.7546771E-02  0.1316859E+00
         21   -1    0    0  503  502  0.00000000000E+00  0.00000000000E+00  0.23169253248E+03  0.23169253248E+03  0.00000000000E+00 0. -1.
          2   -1    0    0  505    0 -0.00000000000E+00 -0.00000000000E+00 -0.45226636607E+03  0.45226636607E+03  0.00000000000E+00 0. -1.
         21    1    1    2  503  501  0.89827698508E+01  0.99417370481E+02  0.17120606266E+03  0.19818178423E+03  0.00000000000E+00 0. -1.
         21    1    1    2  504  502  0.18647087813E+02 -0.56892285270E+02  0.11229164356E+02  0.60914203099E+02  0.00000000000E+00 0. -1.
         21    1    1    2  505  504  0.39107710734E+02 -0.11604398270E+02 -0.51284395199E+02  0.65529873257E+02  0.00000000000E+00 0. -1.
          2    1    1    2  501    0 -0.66737568398E+02 -0.30920686941E+02 -0.35172466541E+03  0.35933303797E+03  0.00000000000E+00 0. -1.
<scales pt_clust_3="84.45670" pt_clust_4="14000.00000" pt_clust_5="40.79308" pt_clust_6="51.97902"></scales>
<clustering>
<clus scale="   40.793">  2  5  1 -1</clus>
<clus scale="   51.979">  2  6  1 -1</clus>
<clus scale="   84.457">  1  3  2 -1</clus>
<clus scale="   84.457">  1  3  2 -1</clus>
</clustering>
</event>
<event>
 6    0  0.6851428E+002  0.1468462E+03  0.7546771E-02  0.1204403E+00
          2   -1    0    0  505    0 -0.00000000000E+00  0.00000000000E+00  0.32272789360E+04  0.32272789360E+04  0.00000000000E+00 0.  1.
         21   -1    0    0  504  502  0.00000000000E+00 -0.00000000000E+00 -0.94535237004E+03  0.94535237004E+03  0.00000000000E+00 0. -1.
         21    1    1    2  503  501  0.93012771645E+02 -0.15820749630E+03 -0.27043882634E+03  0.32683045508E+03  0.00000000000E+00 0.  1.
         21    1    1    2  504  503 -0.87493622146E+02  0.99882856427E+02 -0.53535237927E+03  0.55157401037E+03  0.00000000000E+00 0. -1.
         21    1    1    2  505  502  0.23676560195E+02  0.20419290560E+02 -0.10070414043E+03  0.10544596165E+03  0.00000000000E+00 0. -1.
          2    1    1    2  501    0 -0.29195709693E+02  0.37905349308E+02  0.31884219120E+04  0.31887808790E+04  0.00000000000E+00 0.  1.
<scales pt_clust_3="146.84621" pt_clust_4="14000.00000" pt_clust_5="31.26543" pt_clust_6="47.84601"></scales>
<clustering>
<clus scale="   31.265">  2  5  1 -1</clus>
<clus scale="   47.846">  1  6  2 -1</clus>
<clus scale="  146.846">  1  3  2 -1</clus>
<clus scale="   31.265">  2  3  1 -1</clus>
</clustering>
</event>
<event>
 6    0  0.6851428E+002  0.1453048E+03  0.7546771E-02  0.1206364E+00
         21   -1    0    0  504  502  0.00000000000E+00  0.00000000000E+00  0.62723383004E+03  0.62723383004E+03  0.00000000000E+00 0. -1.
          1   -1    0    0  502    0 -0.00000000000E+00 -0.00000000000E+00 -0.12210553490E+03  0.12210553490E+03  0.00000000000E+00 0. -1.
         21    1    1    2  503  501  0.31709391713E+02 -0.30073327922E+02  0.10409835844E+03  0.11289977327E+03  0.00000000000E+00 0. -1.
         21    1    1    2  504  505 -0.31100504530E+00 -0.38601305747E+02  0.18640036085E+03  0.19035559371E+03  0.00000000000E+00 0.  1.
         21    1    1    2  505  503  0.42420475239E+02 -0.34630237488E+02  0.29220500457E+03  0.29729196888E+03  0.00000000000E+00 0. -1.
          1    1    1    2  501    0 -0.73818861906E+02  0.10330487116E+03 -0.77575428712E+02  0.14879202908E+03  0.00000000000E+00 0. -1.
<scales pt_clust_3="39.22100" pt_clust_4="33.59436" pt_clust_5="39.22100" pt_clust_6="126.96898"></scales>
<clustering>
<clus scale="   33.594">  4  5 -1 -1</clus>
<clus scale="   39.221">  3  4 -1 -1</clus>
<clus scale="  126.969">  2  6  1 -1</clus>
<clus scale="  145.305">  1  3  2 -1</clus>
</clustering>
</event>
<event>
 6    0  0.6851428E+002  0.1429035E+03  0.7546771E-02  0.1209475E+00
         21   -1    0    0  504  502  0.00000000000E+00  0.00000000000E+00  0.18251893172E+03  0.18251893172E+03  0.00000000000E+00 0.  1.
          1   -1    0    0  503    0 -0.00000000000E+00 -0.00000000000E+00 -0.96174330619E+03  0.96174330619E+03  0.00000000000E+00 0. -1.
         21    1    1    2  503  505 -0.46859863420E+02 -0.69619908302E+02  0.65107319696E+02  0.10621554269E+03  0.00000000000E+00 0.  1.
         21    1    1    2  504  501 -0.65385459932E+02  0.10651370321E+03 -0.45581627764E+02  0.13303425172E+03  0.00000000000E+00 0.  1.
         21    1    1    2  505  502 -0.93957306465E+01  0.45629530370E+02  0.35084826698E+02  0.58320484056E+02  0.00000000000E+00 0. -1.
          1    1    1    2  501    0  0.12164105400E+03 -0.82523325280E+02 -0.83383489309E+03  0.84669195943E+03  0.00000000000E+00 0. -1.
<scales pt_clust_3="66.74062" pt_clust_4="14000.00000" pt_clust_5="46.58684" pt_clust_6="142.90352"></scales>
<clustering>
<clus scale="   46.587">  1  5  2 -1</clus>
<clus scale="   66.741">  1  3  2 -1</clus>
<clus scale="  142.904">  2  6  1 -1</clus>
<clus scale="   46.587">  1  3  2 -1</clus>
</clustering>
</event>
<event>
 6    0  0.6851428E+002  0.1360861E+03  0.7546771E-02  0.1218695E+00
         21   -1    0    0  501  502  0.00000000000E+00  0.00000000000E+00  0.27689103046E+03  0.27689103046E+03  0.00000000000E+00 0.  1.
          2   -1    0    0  504    0 -0.00000000000E+00 -0.00000000000E+00 -0.24329250288E+04  0.24329250288E+04  0.00000000000E+00 0. -1.
         21    1    1    2  503  502 -0.23331283004E+02  0.31793773337E+02  0.21354501316E+03  0.21715585517E+03  0.00000000000E+00 0.  1.
         21    1    1    2  504  505 -0.50513412602E+02  0.11440961887E+02 -0.20333658821E+03  0.20982914136E+03  0.00000000000E+00 0. -1.
         21    1    1    2  505  503  0.18829409058E+02  0.10688788209E+03  0.21471069391E+01  0.10855494485E+03  0.00000000000E+00 0. -1.
          2    1    1    2  501    0  0.55015286548E+02 -0.15012261731E+03 -0.21683895303E+04  0.21742761179E+04  0.00000000000E+00 0. -1.
<scales pt_clust_3="39.43593" pt_clust_4="53.38109" pt_clust_5="136.08605" pt_clust_6="14000.00000"></scales>
<clustering>
<clus scale="   39.436">  1  3  2 -1</clus>
<clus scale="   53.381">  2  4  1 -1</clus>
<clus scale="  136.086">  1  5  2 -1</clus>
<clus scale="   39.436">  1  3  2 -1</clus>
</clustering>
</event>
<event>
 6    0  0.6851428E+002  0.1787874E+03  0.7546771E-02  0.1168982E+00
          2   -1    0    0  504    0 -0.00000000000E+00  0.00000000000E+00  0.64958364142E+03  0.64958364142E+03  0.00000000000E+00 0. -1.
         21   -1    0    0  503  502  0.00000000000E+00 -0.00000000000E+00 -0.41689256482E+03  0.41689256482E+03  0.00000000000E+00 0.  1.
         21    1    1    2  503  501  0.68425593580E+02  0.11008165144E+03  0.39318949577E+02  0.13544744973E+03  0.00000000000E+00 0. -1.
         21    1    1    2  504  505 -0.21925946320E+03 -0.14252425904E+03  0.36437609475E+03  0.44850620402E+03  0.00000000000E+00 0. -1.
         21    1    1    2  505  502  0.64629360064E+02  0.29286948059E+02 -0.31050283770E+03  0.31850697281E+03  0.00000000000E+00 0.  1.
          2    1    1    2  501    0  0.86204509555E+02  0.31556595327E+01  0.13949886997E+03  0.16401557968E+03  0.00000000000E+00 0. -1.
<scales pt_clust_3="14000.00000" pt_clust_4="178.78737" pt_clust_5="70.95548" pt_clust_6="94.17818"></scales>
<clustering>
<clus scale="   70.955">  2  5  1 -1</clus>
<clus scale="   94.178">  1  6  2 -1</clus>
<clus scale="  178.787">  1  4  2 -1</clus>
<clus scale="   70.955">  2  3  1 -1</clus>
</clustering>
</event>
<event>
 6    0  0.6851428E+002  0.1454964E+03  0.7546771E-02  0.1206119E+00
          1   -1    0    0  502    0 -0.00000000000E+00  0.00000000000E+00  0.20697713865E+03  0.20697713865E+03  0.00000000000E+00 0.  1.
         21   -1    0    0  505  502  0.00000000000E+00 -0.00000000000E+00 -0.28959697527E+03  0.28959697527E+03  0.00000000000E+00 0.  1.
         21    1    1    2  503  501  0.87582015510E+02  0.14478570355E+02  0.89532798244E+01  0.89221071838E+02  0.00000000000E+00 0.  1.
         21    1    1    2  504  503  0.36677366998E+02  0.47100834883E+02 -0.60694300863E+01  0.60004632140E+02  0.00000000000E+00 0.  1.
         21    1    1    2  505  504 -0.24314852753E+02  0.28318202693E+02 -0.17948648173E+03  0.18332629324E+03  0.00000000000E+00 0.  1.
          1    1    1    2  501    0 -0.99944529755E+02 -0.89897607931E+02  0.93982795374E+02  0.16402211670E+03  0.00000000000E+00 0.  1.
<scales pt_clust_3="48.08420" pt_clust_4="48.08420" pt_clust_5="37.32469" pt_clust_6="134.69080"></scales>
<clustering>
<clus scale="   37.325">  2  5  1 -1</clus>
<clus scale="   48.084">  3  4 -1 -1</clus>
<clus scale="  134.691">  1  6  2 -1</clus>
<clus scale="   37.325">  2  3  1 -1</clus>
</clustering>
</event>
<event>
 6    0  0.6851428E+002  0.2226873E+03  0.7546771E-02  0.1131895E+00
         21   -1    0    0  503  502  0.00000000000E+00  0.00000000000E+00  0.36430288159E+03  0.36430288159E+03  0.00000000000E+00 0. -1.
         -3   -1    0    0    0  501 -0.00000000000E+00 -0.00000000000E+00 -0.29093785700E+03  0.29093785700E+03  0.00000000000E+00 0. -1.
         21    1    1    2  503  505 -0.25587350720E+02  0.28346619731E+02  0.10435634129E+03  0.11112375684E+03  0.00000000000E+00 0. -1.
         21    1    1    2  504  501 -0.67961278342E+02  0.66687991699E+02  0.41263176349E+02  0.10377221841E+03  0.00000000000E+00 0.  1.
         21    1    1    2  505  504 -0.89610261840E+02  0.68735380797E+00  0.12556547569E+03  0.15426328198E+03  0.00000000000E+00 0. -1.
         -3    1    1    2    0  502  0.18315889090E+03 -0.95721965238E+02 -0.19781996874E+03  0.28608148136E+03  0.00000000000E+00 0. -1.
<scales pt_clust_3="38.18695" pt_clust_4="96.32324" pt_clust_5="96.32324" pt_clust_6="200.51764"></scales>
<clustering>
<clus scale="   38.187">  1  3  2 -1</clus>
<clus scale="   96.323">  4  5 -1 -1</clus>
<clus scale="  200.518">  2  6  1 -1</clus>
<clus scale="   38.187">  1  3  2 -1</clus>
</clustering>
</event>
<event>
 6    0  0.1975464E+003  0.8706700E+02  0.7546771E-02  0.1310114E+00
         -1   -1    0    0    0  501 -0.00000000000E+00  0.00000000000E+00  0.52654635853E+03  0.52654635853E+03  0.00000000000E+00 0. -1.
         21   -1    0    0  505  502  0.00000000000E+00 -0.00000000000E+00 -0.66045542450E+03  0.66045542450E+03  0.00000000000E+00 0. -1.
         21    1    1    2  503  502 -0.26551162660E+01  0.63239967984E+02 -0.35723302603E+02  0.72680792111E+02  0.00000000000E+00 0. -1.
         21    1    1    2  504  501  0.50402326356E+02  0.82198576013E+01  0.14008919292E+02  0.52954795636E+02  0.00000000000E+00 0. -1.
         21    1    1    2  505  504 -0.80935362491E+02 -0.30048090672E+02 -0.58210315585E+03  0.58847047905E+03  0.00000000000E+00 0. -1.
         -1    1    1    2    0  503  0.33188152401E+02 -0.41411734914E+02  0.46990847320E+03  0.47289571624E+03  0.00000000000E+00 0. -1.
<scales pt_clust_3="63.55264" pt_clust_4="51.06820" pt_clust_5="14000.00000" pt_clust_6="87.06700"></scales>
<clustering>
<clus scale="   51.068">  1  4  2 -1</clus>
<clus scale="   63.553">  2  3  1 -1</clus>
<clus scale="   87.067">  1  6  2 -1</clus>
<clus scale="   63.553">  2  3  1 -1</clus>
</clustering>
</event>
<event>
 6    0  0.6851428E+002  0.1930988E+03  0.7546771E-02  0.1155696E+00
         21   -1    0    0  503  502  0.00000000000E+00  0.00000000000E+00  0.12584767194E+03  0.12584767194E+03  0.00000000000E+00 0. -1.
          2   -1    0    0  505    0 -0.00000000000E+00 -0.00000000000E+00 -0.16603564335E+04  0.16603564335E+04  0.00000000000E+00 0.  1.
         21    1    1    2  503  501  0.78405554411E+02  0.36783657780E+01  0.64114800495E+02  0.10134924262E+03  0.00000000000E+00 0. -1.
         21    1    1    2  504  502 -0.40816044904E+02 -0.34379111537E+02 -0.13515940738E+03  0.14531324178E+03  0.00000000000E+00 0. -1.
         21    1    1    2  505  504 -0.19026420708E+03 -0.37903733459E+02 -0.25952102156E+03  0.32401901509E+03  0.00000000000E+00 0.  1.
          2    1    1    2  501    0  0.15267469757E+03  0.68604479218E+02 -0.12039431331E+04  0.12155226060E+04  0.00000000000E+00 0.  1.
<scales pt_clust_3="78.49179" pt_clust_4="40.20799" pt_clust_5="40.20799" pt_clust_6="177.22841"></scales>
<clustering>
<clus scale="   40.208">  4  5 -1 -1</clus>
<clus scale="   78.492">  1  3  2 -1</clus>
<clus scale="  177.228">  2  6  1 -1</clus>
<clus scale="   78.492">  1  3  2 -1</clus>
</clustering>
</event>
<event>
 6    0  0.6851428E+002  0.1330411E+03  0.7546771E-02  0.1223012E+00
         21   -1    0    0  503  502  0.00000000000E+00  0.00000000000E+00  0.25104097411E+02  0.25104097411E+02  0.00000000000E+00 0.  1.
          1   -1    0    0  505    0 -0.00000000000E+00 -0.00000000000E+00 -0.28670285224E+04  0.28670285224E+04  0.00000000000E+00 0. -1.
         21    1    1    2  503  501 -0.32377763670E+02 -0.33118717140E+02 -0.16875767509E+03  0.17499806259E+03  0.00000000000E+00 0.  1.
         21    1    1    2  504  502  0.15183065437E+02 -0.47203303241E+02 -0.66373070427E+02  0.82849633619E+02  0.00000000000E+00 0.  1.
         21    1    1    2  505  504 -0.26094219237E+02 -0.39585408614E+02 -0.34019864469E+02  0.58354640186E+02  0.00000000000E+00 0.  1.
          1    1    1    2  501    0  0.43288917470E+02  0.11990742899E+03 -0.25727738150E+04  0.25759302834E+04  0.00000000000E+00 0. -1.
<scales pt_clust_3="46.31597" pt_clust_4="45.95420" pt_clust_5="45.95420" pt_clust_6="124.46425"></scales>
<clustering>
<clus scale="   45.954">  4  5 -1 -1</clus>
<clus scale="   46.316">  1  3  2 -1</clus>
<clus scale="  124.464">  2  6  1 -1</clus>
<clus scale="   46.316">  1  3  2 -1</clus>
</clustering>
</event>
<event>
 6    0  0.6851428E+002  0.7094580E+02  0.7546771E-02  0.1356906E+00
          2   -1    0    0  505    0 -0.00000000000E+00  0.00000000000E+00  0.97535264373E+03  0.97535264373E+03  0.00000000000E+00 0.  1.
         21   -1    0    0  504  502  0.00000000000E+00 -0.00000000000E+00 -0.12364131491E+03  0.12364131491E+03  0.00000000000E+00 0.  1.
         21    1    1    2  503  502  0.16597229176E+02 -0.30536391929E+02 -0.69156495160E+02  0.77398708459E+02  0.00000000000E+00 0.  1.
         21    1    1    2  504  501  0.25572444304E+02  0.59394938283E+02  0.60710667202E+02  0.88698893530E+02  0.00000000000E+00 0.  1.
         21    1    1    2  505  503 -0.34948924956E+01 -0.88241734070E+02  0.21027812197E+02  0.90779880981E+02  0.00000000000E+00 0.  1.
          2    1    1    2  501    0 -0.38674780984E+02  0.59383187715E+02  0.83912934458E+03  0.84211647567E+03  0.00000000000E+00 0.  1.
<scales pt_clust_3="34.75542" pt_clust_4="59.18546" pt_clust_5="70.94580" pt_clust_6="14000.00000"></scales>
<clustering>
<clus scale="   34.755">  2  3  1 -1</clus>
<clus scale="   59.185">  2  4  1 -1</clus>
<clus scale="   70.946">  2  5  1 -1</clus>
<clus scale="   34.755">  2  3  1 -1</clus>
</clustering>
</event>
<event>
 6    0  0.6851428E+002  0.2822370E+03  0.7546771E-02  0.1094473E+00
         21   -1    0    0  501  502  0.00000000000E+00  0.00000000000E+00  0.63474416284E+03  0.63474416284E+03  0.00000000000E+00 0.  1.
          1   -1    0    0  505    0 -0.00000000000E+00 -0.00000000000E+00 -0.17734348675E+03  0.17734348675E+03  0.00000000000E+00 0.  1.
         21    1    1    2  503  502 -0.10548018745E+02 -0.61336785787E+02  0.88488834728E+02  0.10818380591E+03  0.00000000000E+00 0.  1.
         21    1    1    2  504  503 -0.95410957359E+02  0.32490758566E+02  0.16269907609E+03  0.19138936631E+03  0.00000000000E+00 0.  1.
         21    1    1    2  505  504 -0.17041520963E+03  0.38028123337E+02  0.15031329265E+03  0.23039437446E+03  0.00000000000E+00 0.  1.
          1    1    1    2  501    0  0.27637418573E+03 -0.91820961157E+01  0.55899472618E+02  0.28212010291E+03  0.00000000000E+00 0.  1.
<scales pt_clust_3="62.23714" pt_clust_4="49.75363" pt_clust_5="49.75363" pt_clust_6="274.53490"></scales>
<clustering>
<clus scale="   49.754">  4  5 -1 -1</clus>
<clus scale="   62.237">  1  3  2 -1</clus>
<clus scale="  274.535">  2  6  1 -1</clus>
<clus scale="   62.237">  1  3  2 -1</clus>
</clustering>
</event>
<event>
 6    0  0.6851428E+002  0.2560121E+03  0.7546771E-02  0.1109563E+00
         21   -1    0    0  505  502  0.00000000000E+00  0.00000000000E+00  0.21349203326E+03  0.21349203326E+03  0.00000000000E+00 0. -1.
          2   -1    0    0  504    0 -0.00000000000E+00 -0.00000000000E+00 -0.15354486688E+04  0.15354486688E+04  0.00000000000E+00 0. -1.
         21    1    1    2  503  501  0.17521357756E+03 -0.21863378278E+03 -0.10227692364E+03  0.29826347052E+03  0.00000000000E+00 0. -1.
         21    1    1    2  504  502 -0.11791437082E+03  0.18793539482E+03 -0.26513287261E+03  0.34571513072E+03  0.00000000000E+00 0. -1.
         21    1    1    2  505  503  0.47944203515E+02  0.39634535473E+02  0.59113689478E+02  0.85813584802E+02  0.00000000000E+00 0.  1.
          2    1    1    2  501    0 -0.10524341025E+03 -0.89361475055E+01 -0.10136605287E+04  0.10191485160E+04  0.00000000000E+00 0. -1.
<scales pt_clust_3="256.01214" pt_clust_4="14000.00000" pt_clust_5="62.20565" pt_clust_6="104.62963"></scales>
<clustering>
<clus scale="   62.206">  1  5  2 -1</clus>
<clus scale="  104.630">  2  6  1 -1</clus>
<clus scale="  256.012">  1  3  2 -1</clus>
<clus scale="   62.206">  1  3  2 -1</clus>
</clustering>
</event>
<event>
 6    0  0.6851428E+002  0.8594553E+02  0.7546771E-02  0.1312978E+00
         21   -1    0    0  505  502  0.00000000000E+00  0.00000000000E+00  0.38972129189E+02  0.38972129189E+02  0.00000000000E+00 0. -1.
          2   -1    0    0  503    0 -0.00000000000E+00 -0.00000000000E+00 -0.32481328798E+04  0.32481328798E+04  0.00000000000E+00 0. -1.
         21    1    1    2  503  504 -0.56008732369E+02  0.18633259975E+02 -0.86334457840E+02  0.10458400972E+03  0.00000000000E+00 0.  1.
         21    1    1    2  504  502 -0.70039688842E+01  0.34769932319E+02 -0.47888517056E+02  0.59592900914E+02  0.00000000000E+00 0. -1.
         21    1    1    2  505  501  0.14673339858E+03 -0.61980028712E+02 -0.24806217553E+03  0.29480002908E+03  0.00000000000E+00 0. -1.
          2    1    1    2  501    0 -0.83720697325E+02  0.85768364179E+01 -0.28268756001E+04  0.28281280692E+04  0.00000000000E+00 0. -1.
<scales pt_clust_3="64.44228" pt_clust_4="35.46835" pt_clust_5="14000.00000" pt_clust_6="85.94553"></scales>
<clustering>
<clus scale="   35.468">  1  4  2 -1</clus>
<clus scale="   64.442">  1  3  2 -1</clus>
<clus scale="   85.946">  2  6  1 -1</clus>
<clus scale="   35.468">  1  3  2 -1</clus>
</clustering>
</event>
<event>
 6    0  0.6851428E+002  0.1360492E+03  0.7546771E-02  0.1218746E+00
          2   -1    0    0  504    0 -0.00000000000E+00  0.00000000000E+00  0.13305818000E+04  0.13305818000E+04  0.00000000000E+00 0. -1.
         21   -1    0    0  505  502  0.00000000000E+00 -0.00000000000E+00 -0.27437527413E+03  0.27437527413E+03  0.00000000000E+00 0. -1.
         21    1    1    2  503  501 -0.11365402280E+03 -0.94109613899E+02  0.42552784852E+01  0.14762101383E+03  0.00000000000E+00 0. -1.
         21    1    1    2  504  502  0.70995874263E+02  0.13947299828E+03 -0.10950013306E+03  0.19100631024E+03  0.00000000000E+00 0. -1.
         21    1    1    2  505  503 -0.22811790089E+02 -0.31552528918E+02 -0.44154230014E+02  0.58868802232E+02  0.00000000000E+00 0. -1.
          2    1    1    2  501    0  0.65469938631E+02 -0.13810855463E+02  0.12056056105E+04  0.12074609478E+04  0.00000000000E+00 0. -1.
<scales pt_clust_3="14000.00000" pt_clust_4="136.04922" pt_clust_5="38.93507" pt_clust_6="66.84514"></scales>
<clustering>
<clus scale="   38.935">  2  5  1 -1</clus>
<clus scale="   66.845">  1  6  2 -1</clus>
<clus scale="  136.049">  2  4  1 -1</clus>
<clus scale="   38.935">  2  3  1 -1</clus>
</clustering>
</event>
<event>
 6    0  0.6851428E+002  0.9714499E+02  0.7546771E-02  0.1286417E+00
         21   -1    0    0  501  502  0.00000000000E+00  0.00000000000E+00  0.36533372651E+02  0.36533372651E+02  0.00000000000E+00 0. -1.
          2   -1    0    0  505    0 -0.00000000000E+00 -0.00000000000E+00 -0.10829380697E+04  0.10829380697E+04  0.00000000000E+00 0. -1.
         21    1    1    2  503  504 -0.39663996100E+02 -0.10214157294E+03 -0.28342788009E+03  0.30387085533E+03  0.00000000000E+00 0. -1.
         21    1    1    2  504  502 -0.27172051161E+01  0.47705625201E+02 -0.17576668090E+02  0.50913152924E+02  0.00000000000E+00 0. -1.
         21    1    1    2  505  503  0.26604802716E+02  0.92184371820E+02 -0.25286603844E+03  0.27045703417E+03  0.00000000000E+00 0. -1.
          2    1    1    2  501    0  0.15776398501E+02 -0.37748424078E+02 -0.49253411044E+03  0.49423039993E+03  0.00000000000E+00 0. -1.
<scales pt_clust_3="14000.00000" pt_clust_4="45.54858" pt_clust_5="97.14499" pt_clust_6="40.91257"></scales>
<clustering>
<clus scale="   40.913">  2  6  1 -1</clus>
<clus scale="   45.549">  1  4  2 -1</clus>
<clus scale="   97.145">  2  5  1 -1</clus>
<clus scale="   45.549">  1  3  2 -1</clus>
</clustering>
</event>
<event>
 6    0  0.6851428E+002  0.1275695E+03  0.7546771E-02  0.1231107E+00
         21   -1    0    0  505  502  0.00000000000E+00  0.00000000000E+00  0.83330034592E+01  0.83330034592E+01  0.00000000000E+00 0. -1.
          2   -1    0    0  504    0 -0.00000000000E+00 -0.00000000000E+00 -0.46630074086E+04  0.46630074086E+04  0.00000000000E+00 0.  1.
         21    1    1    2  503  502 -0.90180786341E+02 -0.16684193060E+02 -0.52150522281E+03  0.52950791678E+03  0.00000000000E+00 0. -1.
         21    1    1    2  504  503 -0.44396525147E+02 -0.11606909456E+02 -0.64805740321E+03  0.64968005175E+03  0.00000000000E+00 0.  1.
         21    1    1    2  505  501  0.82866353890E+02  0.54024113887E+02 -0.75781242946E+03  0.76424152971E+03  0.00000000000E+00 0. -1.
          2    1    1    2  501    0  0.51710957598E+02 -0.25733011371E+02 -0.27272993497E+04  0.27279109138E+04  0.00000000000E+00 0.  1.
<scales pt_clust_3="43.00441" pt_clust_4="43.00441" pt_clust_5="112.15123" pt_clust_6="57.75994"></scales>
<clustering>
<clus scale="   43.004">  3  4 -1 -1</clus>
<clus scale="   57.760">  2  6  1 -1</clus>
<clus scale="  112.151">  1  5  2 -1</clus>
<clus scale="  112.151">  1  3  2 -1</clus>
</clustering>
</event>
<event>
 6    0  0.6851428E+002  0.1257383E+03  0.7546771E-02  0.1233920E+00
         21   -1    0    0  505  502  0.00000000000E+00  0.00000000000E+00  0.61497143862E+03  0.61497143862E+03  0.00000000000E+00 0. -1.
          1   -1    0    0  504    0 -0.00000000000E+00 -0.00000000000E+00 -0.21527340135E+03  0.21527340135E+03  0.00000000000E+00 0. -1.
         21    1    1    2  503  502 -0.12457207477E+03 -0.87349749625E+02  0.26350501847E+03  0.30427467087E+03  0.00000000000E+00 0. -1.
         21    1    1    2  504  503 -0.27384792034E+02 -0.14092666475E+02 -0.69290763537E+01  0.31568056358E+02  0.00000000000E+00 0. -1.
         21    1    1    2  505  501  0.68259988677E+02 -0.19444819528E+02  0.28281760878E+03  0.29158759730E+03  0.00000000000E+00 0. -1.
          1    1    1    2  501    0  0.83696878124E+02  0.12088723563E+03 -0.13969551364E+03  0.20281451545E+03  0.00000000000E+00 0. -1.
<scales pt_clust_3="125.73832" pt_clust_4="30.79822" pt_clust_5="70.47433" pt_clust_6="14000.00000"></scales>
<clustering>
<clus scale="   30.798">  2  4  1 -1</clus>
<clus scale="   70.474">  1  5  2 -1</clus>
<clus scale="  125.738">  1  3  2 -1</clus>
<clus scale="   70.474">  1  3  2 -1</clus>
</clustering>
</event>
<event>
 6    0  0.6851428E+002  0.1337173E+03  0.7546771E-02  0.1222042E+00
         21   -1    0    0  503  502  0.00000000000E+00  0.00000000000E+00  0.23611572319E+03  0.23611572319E+03  0.00000000000E+00 0.  1.
          2   -1    0    0  504    0 -0.00000000000E+00 -0.00000000000E+00 -0.64807597199E+03  0.64807597199E+03  0.00000000000E+00 0. -1.
         21    1    1    2  503  505 -0.16198041296E+02 -0.81733134837E+02  0.14145333573E+03  0.16416981471E+03  0.00000000000E+00 0.  1.
         21    1    1    2  504  502  0.48543382226E+02  0.14794285651E+03 -0.92428972539E+02  0.18107088036E+03  0.00000000000E+00 0.  1.
         21    1    1    2  505  501 -0.24831606348E+02 -0.31442962800E+02  0.27868899581E+02  0.48805165170E+02  0.00000000000E+00 0. -1.
          2    1    1    2  501    0 -0.75137345819E+01 -0.34766758870E+02 -0.48885351158E+03  0.49014583494E+03  0.00000000000E+00 0. -1.
<scales pt_clust_3="32.49581" pt_clust_4="125.23679" pt_clust_5="32.49581" pt_clust_6="35.56942"></scales>
<clustering>
<clus scale="   32.496">  3  5 -1 -1</clus>
<clus scale="   35.569">  2  6  1 -1</clus>
<clus scale="  125.237">  2  4  1 -1</clus>
<clus scale="  133.717">  1  3  2 -1</clus>
</clustering>
</event>
<event>
 6    0  0.6851428E+002  0.1058024E+03  0.7546771E-02  0.1268547E+00
         -1   -1    0    0    0  501 -0.00000000000E+00  0.00000000000E+00  0.43361146557E+03  0.43361146557E+03  0.00000000000E+00 0.  1.
         21   -1    0    0  504  502  0.00000000000E+00 -0.00000000000E+00 -0.19106483350E+03  0.19106483350E+03  0.00000000000E+00 0. -1.
         21    1    1    2  503  505  0.10743226422E+03  0.65147217379E+02 -0.12208756907E+03  0.17518911453E+03  0.00000000000E+00 0. -1.
         21    1    1    2  504  501 -0.67764010833E+02 -0.39270439766E+02  0.11067366307E+03  0.13558314165E+03  0.00000000000E+00 0.  1.
         21    1    1    2  505  502  0.37723780320E+01 -0.41425192018E+02 -0.12534682932E+02  0.43444166995E+02  0.00000000000E+00 0. -1.
         -1    1    1    2    0  503 -0.43440631422E+02  0.15548414405E+02  0.26649522100E+03  0.27045987589E+03  0.00000000000E+00 0.  1.
<scales pt_clust_3="105.80241" pt_clust_4="14000.00000" pt_clust_5="41.59660" pt_clust_6="45.92879"></scales>
<clustering>
<clus scale="   41.597">  2  5  1 -1</clus>
<clus scale="   45.929">  1  6  2 -1</clus>
<clus scale="  105.802">  2  3  1 -1</clus>
<clus scale="   41.597">  2  3  1 -1</clus>
</clustering>
</event>
<event>
 6    0  0.6851428E+002  0.1333842E+03  0.7546771E-02  0.1222519E+00
         21   -1    0    0  503  502  0.00000000000E+00  0.00000000000E+00  0.63207800535E+03  0.63207800535E+03  0.00000000000E+00 0. -1.
         -3   -1    0    0    0  501 -0.00000000000E+00 -0.00000000000E+00 -0.95228632169E+03  0.95228632169E+03  0.00000000000E+00 0. -1.
         21    1    1    2  503  504 -0.13137009169E+03 -0.23726163472E+02  0.58461991760E+03  0.59966780794E+03  0.00000000000E+00 0. -1.
         21    1    1    2  504  501  0.11304957924E+03  0.10145879366E+03 -0.19970045341E+03  0.25090708493E+03  0.00000000000E+00 0.  1.
         21    1    1    2  505  502  0.27846884547E+02 -0.43704438435E+02 -0.34554959245E+02  0.62286211366E+02  0.00000000000E+00 0.  1.
         -3    1    1    2    0  505 -0.95263720964E+01 -0.34028191751E+02 -0.67057282128E+03  0.67150322280E+03  0.00000000000E+00 0. -1.
<scales pt_clust_3="14000.00000" pt_clust_4="133.38418" pt_clust_5="56.06488" pt_clust_6="35.33652"></scales>
<clustering>
<clus scale="   35.337">  2  6  1 -1</clus>
<clus scale="   56.065">  2  5  1 -1</clus>
<clus scale="  133.384">  2  4  1 -1</clus>
<clus scale="  133.384">  1  3  2 -1</clus>
</clustering>
</event>
<event>
 6    0  0.6851428E+002  0.7384999E+02  0.7546771E-02  0.1347470E+00
         21   -1    0    0  505  502  0.00000000000E+00  0.00000000000E+00  0.53974037651E+02  0.53974037651E+02  0.00000000000E+00 0. -1.
          2   -1    0    0  504    0 -0.00000000000E+00 -0.00000000000E+00 -0.93666145308E+03  0.93666145308E+03  0.00000000000E+00 0. -1.
         21    1    1    2  503  502  0.21967002437E+02 -0.21301678247E+02  0.23815921483E+01  0.30691736239E+02  0.00000000000E+00 0. -1.
         21    1    1    2  504  503 -0.40105270529E+02 -0.44581246988E+02 -0.31485456383E+02  0.67729271891E+02  0.00000000000E+00 0. -1.
         21    1    1    2  505  501 -0.45902105647E+01  0.11996208384E+03 -0.18171305822E+03  0.21778798663E+03  0.00000000000E+00 0. -1.
          2    1    1    2  501    0  0.22728478656E+02 -0.54079158606E+02 -0.67187049297E+03  0.67442649597E+03  0.00000000000E+00 0. -1.
<scales pt_clust_3="30.59919" pt_clust_4="14000.00000" pt_clust_5="73.84999" pt_clust_6="59.62355"></scales>
<clustering>
<clus scale="   30.599">  1  3  2 -1</clus>
<clus scale="   59.624">  2  6  1 -1</clus>
<clus scale="   73.850">  2  5  1 -1</clus>
<clus scale="   30.599">  1  3  2 -1</clus>
</clustering>
</event>
<event>
 6    0  0.6851428E+002  0.7061854E+02  0.7546771E-02  0.1358002E+00
         21   -1    0    0  504  502  0.00000000000E+00  0.00000000000E+00  0.10266505108E+03  0.10266505108E+03  0.00000000000E+00 0. -1.
          2   -1    0    0  503    0 -0.00000000000E+00 -0.00000000000E+00 -0.91009244009E+03  0.91009244009E+03  0.00000000000E+00 0. -1.
         21    1    1    2  503  502 -0.46909549619E+02  0.38254197263E+02 -0.53783121554E+02  0.80972301547E+02  0.00000000000E+00 0. -1.
         21    1    1    2  504  505  0.43580187877E+02  0.31699299442E+02  0.31422995520E+02  0.62381752203E+02  0.00000000000E+00 0. -1.
         21    1    1    2  505  501 -0.61388668298E+02 -0.38393893294E+02  0.82054561524E+01  0.72869672350E+02  0.00000000000E+00 0. -1.
          2    1    1    2  501    0  0.64718030039E+02 -0.31559603411E+02 -0.79327271913E+03  0.79653376507E+03  0.00000000000E+00 0. -1.
<scales pt_clust_3="70.61854" pt_clust_4="53.88950" pt_clust_5="33.43855" pt_clust_6="14000.00000"></scales>
<clustering>
<clus scale="   53.890">  1  4  2 -1</clus>
<clus scale="   33.439">  1  5  2 -1</clus>
<clus scale="   70.619">  1  3  2 -1</clus>
<clus scale="   53.890">  1  3  2 -1</clus>
</clustering>
</event>
<event>
 6    0  0.6851428E+002  0.1268387E+03  0.7546771E-02  0.1232223E+00
          1   -1    0    0  503    0 -0.00000000000E+00  0.00000000000E+00  0.24554650388E+04  0.24554650388E+04  0.00000000000E+00 0.  1.
         21   -1    0    0  505  502  0.00000000000E+00 -0.00000000000E+00 -0.11770904534E+03  0.11770904534E+03  0.00000000000E+00 0.  1.
         21    1    1    2  503  502  0.30645681817E+02  0.39280072397E+02  0.78953194834E+02  0.93357853853E+02  0.00000000000E+00 0. -1.
         21    1    1    2  504  501  0.83510867444E+02  0.77268571871E+02 -0.66291858167E+02  0.13167804540E+03  0.00000000000E+00 0.  1.
         21    1    1    2  505  504 -0.17339487723E+02 -0.34245523125E+02  0.27953031342E+02  0.47484583286E+02  0.00000000000E+00 0.  1.
          1    1    1    2  501    0 -0.96817061538E+02 -0.82303121143E+02  0.22971416254E+04  0.23006536016E+04  0.00000000000E+00 0.  1.
<scales pt_clust_3="47.30986" pt_clust_4="126.83869" pt_clust_5="38.38507" pt_clust_6="14000.00000"></scales>
<clustering>
<clus scale="   38.385">  2  5  1 -1</clus>
<clus scale="   47.310">  2  3  1 -1</clus>
<clus scale="  126.839">  2  4  1 -1</clus>
<clus scale="   38.385">  2  3  1 -1</clus>
</clustering>
</event>
<event>
 6    0  0.6851428E+002  0.1249679E+03  0.7546771E-02  0.1235119E+00
         21   -1    0    0  501  502  0.00000000000E+00  0.00000000000E+00  0.59649716183E+03  0.59649716183E+03  0.00000000000E+00 0. -1.
          2   -1    0    0  504    0 -0.00000000000E+00 -0.00000000000E+00 -0.40534506595E+03  0.40534506595E+03  0.00000000000E+00 0.  1.
         21    1    1    2  503  502  0.46162524725E+02  0.15516949412E+01  0.53526373204E+03  0.53725287276E+03  0.00000000000E+00 0. -1.
         21    1    1    2  504  505  0.28236930084E+02 -0.14348601239E+02 -0.78868599903E+01  0.32640605671E+02  0.00000000000E+00 0. -1.
         21    1    1    2  505  503 -0.20198269920E+02  0.13205377740E+03 -0.21697990573E+03  0.25480669089E+03  0.00000000000E+00 0.  1.
          2    1    1    2  501    0 -0.54201184889E+02 -0.11925687110E+03 -0.11924487044E+03  0.17714205846E+03  0.00000000000E+00 0.  1.
<scales pt_clust_3="46.26026" pt_clust_4="31.67344" pt_clust_5="124.96794" pt_clust_6="14000.00000"></scales>
<clustering>
<clus scale="   31.673">  2  4  1 -1</clus>
<clus scale="   46.260">  1  3  2 -1</clus>
<clus scale="  124.968">  2  5  1 -1</clus>
<clus scale="   46.260">  1  3  2 -1</clus>
</clustering>
</event>
<event>
 6    0  0.6851428E+002  0.9034086E+02  0.7546771E-02  0.1302028E+00
          2   -1    0    0  505    0 -0.00000000000E+00  0.00000000000E+00  0.10749238128E+03  0.10749238128E+03  0.00000000000E+00 0.  1.
         21   -1    0    0  503  502  0.00000000000E+00 -0.00000000000E+00 -0.14104245634E+04  0.14104245634E+04  0.00000000000E+00 0. -1.
         21    1    1    2  503  501 -0.58807741308E+02 -0.54813515099E+00 -0.68174616538E+02  0.90035710860E+02  0.00000000000E+00 0. -1.
         21    1    1    2  504  502  0.11691571065E+02  0.88618075722E+02 -0.11388406472E+04  0.11423431515E+04  0.00000000000E+00 0. -1.
         21    1    1    2  505  504  0.11117857319E+02 -0.99635552936E+02 -0.17284759829E+03  0.19981777297E+03  0.00000000000E+00 0. -1.
          2    1    1    2  501    0  0.35998312924E+02  0.11565612366E+02  0.76930679882E+02  0.85720309320E+02  0.00000000000E+00 0.  1.
<scales pt_clust_3="43.97943" pt_clust_4="90.34086" pt_clust_5="14000.00000" pt_clust_6="37.81061"></scales>
<clustering>
<clus scale="   37.811">  1  6  2 -1</clus>
<clus scale="   43.979">  1  3  2 -1</clus>
<clus scale="   90.341">  2  4  1 -1</clus>
<clus scale="   90.341">  2  3  1 -1</clus>
</clustering>
</event>
<event>
 6    0  0.6851428E+002  0.1188804E+03  0.7546771E-02  0.1244956E+00
         21   -1    0    0  503  502  0.00000000000E+00  0.00000000000E+00  0.79201901406E+03  0.79201901406E+03  0.00000000000E+00 0. -1.
          2   -1    0    0  505    0 -0.00000000000E+00 -0.00000000000E+00 -0.24140460925E+03  0.24140460925E+03  0.00000000000E+00 0. -1.
         21    1    1    2  503  501 -0.62639972931E+02  0.10925678662E+03  0.14006410468E+03  0.18835807668E+03  0.00000000000E+00 0. -1.
         21    1    1    2  504  502  0.47353479013E+02 -0.10724463309E+03  0.55696804062E+03  0.56917234787E+03  0.00000000000E+00 0. -1.
         21    1    1    2  505  504  0.25200024434E+02  0.27069513859E+02  0.58213490395E+02  0.68968183071E+02  0.00000000000E+00 0. -1.
          2    1    1    2  501    0 -0.99135305152E+01 -0.29081667388E+02 -0.20463123089E+03  0.20692501569E+03  0.00000000000E+00 0. -1.
<scales pt_clust_3="118.88041" pt_clust_4="14000.00000" pt_clust_5="32.80624" pt_clust_6="30.72493"></scales>
<clustering>
<clus scale="   30.725">  2  6  1 -1</clus>
<clus scale="   32.806">  2  5  1 -1</clus>
<clus scale="  118.880">  2  3  1 -1</clus>
<clus scale="  118.880">  1  3  2 -1</clus>
</clustering>
</event>
<event>
 6    0  0.6851428E+002  0.9194629E+02  0.7546771E-02  0.1298206E+00
          1   -1    0    0  504    0 -0.00000000000E+00  0.00000000000E+00  0.20347878498E+03  0.20347878498E+03  0.00000000000E+00 0.  1.
         21   -1    0    0  503  502  0.00000000000E+00 -0.00000000000E+00 -0.13145809166E+04  0.13145809166E+04  0.00000000000E+00 0.  1.
         21    1    1    2  503  501  0.40517627611E+02  0.61766969314E+02 -0.74395978779E+03  0.74761821974E+03  0.00000000000E+00 0.  1.
         21    1    1    2  504  505  0.10434008060E+02 -0.83723983956E+02 -0.43760286582E+03  0.44566225125E+03  0.00000000000E+00 0.  1.
         21    1    1    2  505  502  0.34889487909E+02 -0.14303254231E+02 -0.11293690326E+03  0.11906554315E+03  0.00000000000E+00 0.  1.
          1    1    1    2  501    0 -0.85841123579E+02  0.36260268873E+02  0.18339742526E+03  0.20571368741E+03  0.00000000000E+00 0.  1.
<scales pt_clust_3="81.65235" pt_clust_4="91.94629" pt_clust_5="37.70755" pt_clust_6="14000.00000"></scales>
<clustering>
<clus scale="   37.708">  2  5  1 -1</clus>
<clus scale="   81.652">  2  3  1 -1</clus>
<clus scale="   91.946">  2  4  1 -1</clus>
<clus scale="   37.708">  2  3  1 -1</clus>
</clustering>
</event>
<event>
 6    0  0.6851428E+002  0.1331672E+03  0.7546771E-02  0.1222830E+00
         21   -1    0    0  504  502  0.00000000000E+00  0.00000000000E+00  0.20868042685E+02  0.20868042685E+02  0.00000000000E+00 0. -1.
          2   -1    0    0  503    0 -0.00000000000E+00 -0.00000000000E+00 -0.31025167517E+04  0.31025167517E+04  0.00000000000E+00 0. -1.
         21    1    1    2  503  505  0.88340563609E+02  0.24638651555E+02 -0.23440455623E+03  0.25170739820E+03  0.00000000000E+00 0. -1.
         21    1    1    2  504  501  0.25789833380E+01  0.74135217626E+02 -0.52705813337E+03  0.53225271967E+03  0.00000000000E+00 0. -1.
         21    1    1    2  505  502  0.27023087808E+02 -0.13572373339E+02 -0.23928160549E+02  0.38561813495E+02  0.00000000000E+00 0.  1.
          2    1    1    2  501    0 -0.11794263475E+03 -0.85201495841E+02 -0.22962578589E+04  0.23008628630E+04  0.00000000000E+00 0. -1.
<scales pt_clust_3="133.16723" pt_clust_4="71.95336" pt_clust_5="30.23998" pt_clust_6="14000.00000"></scales>
<clustering>
<clus scale="   30.240">  1  5  2 -1</clus>
<clus scale="   71.953">  1  4  2 -1</clus>
<clus scale="  133.167">  1  3  2 -1</clus>
<clus scale="   30.240">  1  3  2 -1</clus>
</clustering>
</event>
<event>
 6    0  0.6851428E+002  0.8443323E+02  0.7546771E-02  0.1316921E+00
          3   -1    0    0  505    0 -0.00000000000E+00  0.00000000000E+00  0.31229571599E+03  0.31229571599E+03  0.00000000000E+00 0.  1.
         21   -1    0    0  504  502  0.00000000000E+00 -0.00000000000E+00 -0.20797078386E+03  0.20797078386E+03  0.00000000000E+00 0.  1.
         21    1    1    2  503  502  0.97566179844E+02  0.15574640988E+02  0.18659979791E+03  0.21114263774E+03  0.00000000000E+00 0.  1.
         21    1    1    2  504  501 -0.52431555259E+02 -0.22578413606E+02 -0.16675431721E+03  0.17625508519E+03  0.00000000000E+00 0.  1.
         21    1    1    2  505  503  0.15994725213E+02 -0.26901802714E+02  0.36516587527E+02  0.48093652269E+02  0.00000000000E+00 0.  1.
          3    1    1    2  501    0 -0.61129349798E+02  0.33905575332E+02  0.47962863908E+02  0.84775124651E+02  0.00000000000E+00 0.  1.
<scales pt_clust_3="14000.00000" pt_clust_4="57.01771" pt_clust_5="31.29758" pt_clust_6="84.43323"></scales>
<clustering>
<clus scale="   31.298">  1  5  2 -1</clus>
<clus scale="   57.018">  2  4  1 -1</clus>
<clus scale="   84.433">  2  6  1 -1</clus>
<clus scale="   57.018">  2  3  1 -1</clus>
</clustering>
</event>
<event>
 6    0  0.6851428E+002  0.1852145E+03  0.7546771E-02  0.1162850E+00
         -3   -1    0    0    0  501 -0.00000000000E+00  0.00000000000E+00  0.45292458992E+03  0.45292458992E+03  0.00000000000E+00 0. -1.
         21   -1    0    0  505  502  0.00000000000E+00 -0.00000000000E+00 -0.17089753575E+04  0.17089753575E+04  0.00000000000E+00 0. -1.
         21    1    1    2  503  502 -0.53850572339E+02  0.12712664434E+03 -0.89652877993E+03  0.90709697446E+03  0.00000000000E+00 0. -1.
         21    1    1    2  504  503 -0.32957138087E+02  0.21625167524E+02 -0.11553793130E+03  0.12207716572E+03  0.00000000000E+00 0.  1.
         21    1    1    2  505  501  0.37076349762E+02 -0.16881522125E+03 -0.67582075974E+03  0.69757217113E+03  0.00000000000E+00 0. -1.
         -3    1    1    2    0  504  0.49731360664E+02  0.20063409390E+02  0.43183670338E+03  0.43515363611E+03  0.00000000000E+00 0. -1.
<scales pt_clust_3="38.74462" pt_clust_4="38.74462" pt_clust_5="170.43094" pt_clust_6="53.62601"></scales>
<clustering>
<clus scale="   38.745">  3  4 -1 -1</clus>
<clus scale="   53.626">  1  6  2 -1</clus>
<clus scale="  170.431">  1  5  2 -1</clus>
<clus scale="  185.214">  2  3  1 -1</clus>
</clustering>
</event>
<event>
 6    0  0.6851428E+002  0.1505038E+03  0.7546771E-02  0.1199855E+00
         21   -1    0    0  505  502  0.00000000000E+00  0.00000000000E+00  0.25359073409E+03  0.25359073409E+03  0.00000000000E+00 0. -1.
          2   -1    0    0  504    0 -0.00000000000E+00 -0.00000000000E+00 -0.27188729567E+04  0.27188729567E+04  0.00000000000E+00 0. -1.
         21    1    1    2  503  501  0.48355993980E+02 -0.46916961862E+02  0.32509072719E+02  0.74808711212E+02  0.00000000000E+00 0. -1.
         21    1    1    2  504  502 -0.13727119092E+03  0.73089510707E+02  0.26255119852E+02  0.15771743008E+03  0.00000000000E+00 0. -1.
         21    1    1    2  505  503  0.55388231906E+02 -0.45443020551E+02  0.95899384950E+02  0.11970637570E+03  0.00000000000E+00 0. -1.
          2    1    1    2  501    0  0.33526965033E+02  0.19270471706E+02 -0.26199458001E+04  0.26202311738E+04  0.00000000000E+00 0. -1.
<scales pt_clust_3="44.28742" pt_clust_4="143.51735" pt_clust_5="44.28742" pt_clust_6="38.67051"></scales>
<clustering>
<clus scale="   38.671">  2  6  1 -1</clus>
<clus scale="   44.287">  3  5 -1 -1</clus>
<clus scale="  143.517">  2  4  1 -1</clus>
<clus scale="  150.504">  1  3  2 -1</clus>
</clustering>
</event>
<event>
 6    0  0.6851428E+002  0.1214765E+03  0.7546771E-02  0.1240681E+00
         21   -1    0    0  503  502  0.00000000000E+00  0.00000000000E+00  0.85923938740E+02  0.85923938740E+02  0.00000000000E+00 0. -1.
          2   -1    0    0  504    0 -0.00000000000E+00 -0.00000000000E+00 -0.27484660740E+04  0.27484660740E+04  0.00000000000E+00 0. -1.
         21    1    1    2  503  505  0.22045439347E+02 -0.11670175923E+03  0.26568929260E+02  0.12170131472E+03  0.00000000000E+00 0. -1.
         21    1    1    2  504  502 -0.54620114442E+02 -0.29746493810E+02 -0.50282879976E+03  0.50666064842E+03  0.00000000000E+00 0.  1.
         21    1    1    2  505  501  0.30715268184E+02  0.17640913026E+03 -0.81594829998E+03  0.83536533157E+03  0.00000000000E+00 0.  1.
          2    1    1    2  501    0  0.18594069104E+01 -0.29960877225E+02 -0.13703339648E+04  0.13706627180E+04  0.00000000000E+00 0. -1.
<scales pt_clust_3="121.47650" pt_clust_4="67.58419" pt_clust_5="14000.00000" pt_clust_6="30.01852"></scales>
<clustering>
<clus scale="   30.019">  2  6  1 -1</clus>
<clus scale="   67.584">  2  4  1 -1</clus>
<clus scale="  121.477">  1  3  2 -1</clus>
<clus scale="  121.477">  1  3  2 -1</clus>
</clustering>
</event>
<event>
 6    0  0.6851428E+002  0.1143689E+03  0.7546771E-02  0.1252687E+00
          2   -1    0    0  505    0 -0.00000000000E+00  0.00000000000E+00  0.21925110700E+03  0.21925110700E+03  0.00000000000E+00 0. -1.
         21   -1    0    0  503  502  0.00000000000E+00 -0.00000000000E+00 -0.46996107290E+03  0.46996107290E+03  0.00000000000E+00 0. -1.
         21    1    1    2  503  504  0.53216912449E+02 -0.14891160598E+02 -0.26884218892E+03  0.27446294645E+03  0.00000000000E+00 0. -1.
         21    1    1    2  504  501  0.52457283676E+02 -0.16958859902E+02 -0.12918057592E+03  0.14045280607E+03  0.00000000000E+00 0. -1.
         21    1    1    2  505  502 -0.10056746405E+03 -0.25094829142E+02 -0.12652839549E+02  0.10442059004E+03  0.00000000000E+00 0. -1.
          2    1    1    2  501    0 -0.51067320710E+01  0.56944849642E+02  0.15996563848E+03  0.16987583733E+03  0.00000000000E+00 0. -1.
<scales pt_clust_3="39.34252" pt_clust_4="39.34252" pt_clust_5="107.37196" pt_clust_6="57.17337"></scales>
<clustering>
<clus scale="   39.343">  3  4 -1 -1</clus>
<clus scale="   57.173">  1  6  2 -1</clus>
<clus scale="  107.372">  1  5  2 -1</clus>
<clus scale="  114.369">  2  3  1 -1</clus>
</clustering>
</event>
<event>
 6    0  0.6851428E+002  0.8719423E+02  0.7546771E-02  0.1309792E+00
          2   -1    0    0  503    0 -0.00000000000E+00  0.00000000000E+00  0.28738787870E+04  0.28738787870E+04  0.00000000000E+00 0.  1.
         21   -1    0    0  505  502  0.00000000000E+00 -0.00000000000E+00 -0.52428703500E+02  0.52428703500E+02  0.00000000000E+00 0.  1.
         21    1    1    2  503  504  0.11535742555E+03 -0.14220309785E+02  0.17554479744E+03  0.21053628843E+03  0.00000000000E+00 0.  1.
         21    1    1    2  504  502 -0.16016353683E+02  0.27704243193E+02 -0.18522146345E+02  0.36974566683E+02  0.00000000000E+00 0.  1.
         21    1    1    2  505  501 -0.20743062924E+02  0.23100453628E+02  0.30766188321E+02  0.43708854493E+02  0.00000000000E+00 0.  1.
          2    1    1    2  501    0 -0.78598008947E+02 -0.36584387035E+02  0.26336612441E+04  0.26350877809E+04  0.00000000000E+00 0.  1.
<scales pt_clust_3="87.19423" pt_clust_4="50.49214" pt_clust_5="31.04683" pt_clust_6="14000.00000"></scales>
<clustering>
<clus scale="   31.047">  2  5  1 -1</clus>
<clus scale="   50.492">  2  4  1 -1</clus>
<clus scale="   87.194">  2  3  1 -1</clus>
<clus scale="   31.047">  2  3  1 -1</clus>
</clustering>
</event>
<event>
 6    0  0.6851428E+002  0.1374636E+03  0.7546771E-02  0.1216783E+00
         21   -1    0    0  501  502  0.00000000000E+00  0.00000000000E+00  0.11354623040E+03  0.11354623040E+03  0.00000000000E+00 0.  1.
          2   -1    0    0  504    0 -0.00000000000E+00 -0.00000000000E+00 -0.10699808980E+04  0.10699808980E+04  0.00000000000E+00 0. -1.
         21    1    1    2  503  502  0.40314894814E+02 -0.27819864930E+02  0.10791050305E+02  0.50156578784E+02  0.00000000000E+00 0.  1.
         21    1    1    2  504  505  0.11149430722E+02  0.46666298571E+02  0.88075366660E+01  0.48781409675E+02  0.00000000000E+00 0.  1.
         21    1    1    2  505  503  0.67226892714E+02  0.28144096772E+02  0.23778184948E+02  0.76661250750E+02  0.00000000000E+00 0.  1.
          2    1    1    2  501    0 -0.11869121825E+03 -0.46990530413E+02 -0.99981143950E+03  0.10079278892E+04  0.00000000000E+00 0. -1.
<scales pt_clust_3="48.98199" pt_clust_4="43.95388" pt_clust_5="43.95388" pt_clust_6="126.33944"></scales>
<clustering>
<clus scale="   43.954">  4  5 -1 -1</clus>
<clus scale="   48.982">  1  3  2 -1</clus>
<clus scale="  126.339">  2  6  1 -1</clus>
<clus scale="   48.982">  1  3  2 -1</clus>
</clustering>
</event>
<event>
 6    0  0.6851428E+002  0.1330158E+03  0.7546771E-02  0.1223048E+00
         21   -1    0    0  503  502  0.00000000000E+00  0.00000000000E+00  0.18993643872E+04  0.18993643872E+04  0.00000000000E+00 0. -1.
         -3   -1    0    0    0  501 -0.00000000000E+00 -0.00000000000E+00 -0.13023673168E+03  0.13023673168E+03  0.00000000000E+00 0.  1.
         21    1    1    2  503  501  0.23897706536E+02 -0.25435580757E+02  0.89096820284E+03  0.89165150570E+03  0.00000000000E+00 0. -1.
         21    1    1    2  504  502 -0.14018372754E+03  0.70213333107E+02  0.77290817612E+03  0.78864975643E+03  0.00000000000E+00 0. -1.
         21    1    1    2  505  504  0.79813038375E+02 -0.14409528335E+03  0.16046024791E+03  0.22995882879E+03  0.00000000000E+00 0.  1.
         -3    1    1    2    0  505  0.36472982631E+02  0.99317531004E+02 -0.55208971375E+02  0.11934102793E+03  0.00000000000E+00 0.  1.
<scales pt_clust_3="34.90085" pt_clust_4="133.01579" pt_clust_5="14000.00000" pt_clust_6="105.31011"></scales>
<clustering>
<clus scale="   34.901">  1  3  2 -1</clus>
<clus scale="  105.310">  2  6  1 -1</clus>
<clus scale="  133.016">  1  4  2 -1</clus>
<clus scale="   34.901">  1  3  2 -1</clus>
</clustering>
</event>
<event>
 6    0  0.6851428E+002  0.8431583E+02  0.7546771E-02  0.1317231E+00
         21   -1    0    0  504  502  0.00000000000E+00  0.00000000000E+00  0.12891261184E+04  0.12891261184E+04  0.00000000000E+00 0.  1.
          2   -1    0    0  505    0 -0.00000000000E+00 -0.00000000000E+00 -0.43553869082E+02  0.43553869082E+02  0.00000000000E+00 0.  1.
         21    1    1    2  503  501  0.47653982143E+02  0.44212969955E+02  0.12787505754E+03  0.14344936064E+03  0.00000000000E+00 0.  1.
         21    1    1    2  504  503  0.48674137292E+02  0.23093770526E+02  0.37788321011E+03  0.38170435465E+03  0.00000000000E+00 0.  1.
         21    1    1    2  505  502 -0.13009376256E+03 -0.42313862979E+02  0.75155740610E+03  0.76390665969E+03  0.00000000000E+00 0.  1.
          2    1    1    2  501    0  0.33765643122E+02 -0.24992877503E+02 -0.11743424397E+02  0.43619612537E+02  0.00000000000E+00 0.  1.
<scales pt_clust_3="14000.00000" pt_clust_4="56.43381" pt_clust_5="84.31583" pt_clust_6="42.00908"></scales>
<clustering>
<clus scale="   42.009">  2  6  1 -1</clus>
<clus scale="   56.434">  1  4  2 -1</clus>
<clus scale="   84.316">  1  5  2 -1</clus>
<clus scale="   56.434">  1  3  2 -1</clus>
</clustering>
</event>
<event>
 6    0  0.6851428E+002  0.1399175E+03  0.7546771E-02  0.1213440E+00
          2   -1    0    0  505    0 -0.00000000000E+00  0.00000000000E+00  0.37067421875E+03  0.37067421875E+03  0.00000000000E+00 0.  1.
         21   -1    0    0  504  502  0.00000000000E+00 -0.00000000000E+00 -0.19190905537E+04  0.19190905537E+04  0.00000000000E+00 0. -1.
         21    1    1    2  503  502  0.66139536118E+02 -0.11662675143E+03 -0.13712447191E+04  0.13777838426E+04  0.00000000000E+00 0. -1.
         21    1    1    2  504  501  0.12234118676E+01 -0.64812756282E+02 -0.13296951277E+03  0.14792931231E+03  0.00000000000E+00 0. -1.
         21    1    1    2  505  503 -0.58142520539E+02  0.10246215984E+03 -0.39094430039E+03  0.40830931033E+03  0.00000000000E+00 0. -1.
          2    1    1    2  501    0 -0.92204274465E+01  0.78977347866E+02  0.34674219728E+03  0.35574230720E+03  0.00000000000E+00 0.  1.
<scales pt_clust_3="139.91746" pt_clust_4="64.82430" pt_clust_5="14000.00000" pt_clust_6="79.35053"></scales>
<clustering>
<clus scale="   64.824">  2  4  1 -1</clus>
<clus scale="   79.351">  1  6  2 -1</clus>
<clus scale="  139.917">  2  3  1 -1</clus>
<clus scale="   64.824">  2  3  1 -1</clus>
</clustering>
</event>
<event>
 6    0  0.6851428E+002  0.1259943E+03  0.7546771E-02  0.1233524E+00
          1   -1    0    0  503    0 -0.00000000000E+00  0.00000000000E+00  0.73342702853E+03  0.73342702853E+03  0.00000000000E+00 0.  1.
         21   -1    0    0  501  502  0.00000000000E+00 -0.00000000000E+00 -0.52020251858E+02  0.52020251858E+02  0.00000000000E+00 0. -1.
         21    1    1    2  503  505 -0.44916574664E+02 -0.66976731543E+01  0.24406541266E+02  0.51556151542E+02  0.00000000000E+00 0. -1.
         21    1    1    2  504  502 -0.32290574285E+02  0.36163825848E+02  0.98604209738E+00  0.48492017556E+02  0.00000000000E+00 0. -1.
         21    1    1    2  505  504 -0.49851266863E+02  0.26661638075E+01  0.77217948857E+02  0.91950360863E+02  0.00000000000E+00 0. -1.
          1    1    1    2  501    0  0.12705841581E+03 -0.32132316502E+02  0.57879624445E+03  0.59344875043E+03  0.00000000000E+00 0.  1.
<scales pt_clust_3="33.98126" pt_clust_4="48.48199" pt_clust_5="33.98126" pt_clust_6="120.85184"></scales>
<clustering>
<clus scale="   33.981">  3  5 -1 -1</clus>
<clus scale="   48.482">  2  4  1 -1</clus>
<clus scale="  120.852">  1  6  2 -1</clus>
<clus scale="   48.482">  2  3  1 -1</clus>
</clustering>
</event>
<event>
 6    0  0.6851428E+002  0.6659743E+02  0.7546771E-02  0.1372061E+00
         21   -1    0    0  504  502  0.00000000000E+00  0.00000000000E+00  0.12780910899E+03  0.12780910899E+03  0.00000000000E+00 0. -1.
          2   -1    0    0  505    0 -0.00000000000E+00 -0.00000000000E+00 -0.26427934242E+04  0.26427934242E+04  0.00000000000E+00 0.  1.
         21    1    1    2  503  502  0.30474912096E+02 -0.90875388501E+01 -0.25243245324E+01  0.31901032020E+02  0.00000000000E+00 0. -1.
         21    1    1    2  504  501 -0.58281862543E+02 -0.18614042721E+01  0.64589081699E+01  0.58668201116E+02  0.00000000000E+00 0. -1.
         21    1    1    2  505  503  0.79960590471E+02  0.52118453210E+02  0.51704512161E+02  0.10855130479E+03  0.00000000000E+00 0. -1.
          2    1    1    2  501    0 -0.52153640024E+02 -0.41169510088E+02 -0.25706234110E+04  0.25714819953E+04  0.00000000000E+00 0.  1.
<scales pt_clust_3="31.80100" pt_clust_4="49.71123" pt_clust_5="66.59743" pt_clust_6="14000.00000"></scales>
<clustering>
<clus scale="   31.801">  1  3  2 -1</clus>
<clus scale="   49.711">  1  4  2 -1</clus>
<clus scale="   66.597">  1  5  2 -1</clus>
<clus scale="   31.801">  1  3  2 -1</clus>
</clustering>
</event>
<event>
 6    0  0.6851428E+002  0.1135104E+03  0.7546771E-02  0.1254204E+00
         21   -1    0    0  504  502  0.00000000000E+00  0.00000000000E+00  0.12342655734E+03  0.12342655734E+03  0.00000000000E+00 0. -1.
          2   -1    0    0  503    0 -0.00000000000E+00 -0.00000000000E+00 -0.39594661664E+03  0.39594661664E+03  0.00000000000E+00 0. -1.
         21    1    1    2  503  505 -0.10542681914E+03 -0.67276044898E+02 -0.13965446470E+03  0.18746799706E+03  0.00000000000E+00 0. -1.
         21    1    1    2  504  501  0.11256848483E+03 -0.34737081730E+02 -0.72817110644E+02  0.13849426063E+03  0.00000000000E+00 0. -1.
         21    1    1    2  505  502 -0.28263089351E+02 -0.18173050548E+02  0.27339994965E+02  0.43319017886E+02  0.00000000000E+00 0. -1.
          2    1    1    2  501    0  0.21121423658E+02  0.12018617718E+03 -0.87388478923E+02  0.15009189842E+03  0.00000000000E+00 0. -1.
<scales pt_clust_3="113.51044" pt_clust_4="110.15430" pt_clust_5="33.60152" pt_clust_6="14000.00000"></scales>
<clustering>
<clus scale="   33.602">  1  5  2 -1</clus>
<clus scale="  110.154">  1  4  2 -1</clus>
<clus scale="  113.510">  2  3  1 -1</clus>
<clus scale="   33.602">  1  3  2 -1</clus>
</clustering>
</event>
<event>
 6    0  0.6851428E+002  0.1314185E+03  0.7546771E-02  0.1225366E+00
         21   -1    0    0  503  502  0.00000000000E+00  0.00000000000E+00  0.23647905500E+03  0.23647905500E+03  0.00000000000E+00 0.  1.
          2   -1    0    0  504    0 -0.00000000000E+00 -0.00000000000E+00 -0.37375054520E+04  0.37375054520E+04  0.00000000000E+00 0. -1.
         21    1    1    2  503  501 -0.46133123464E+02 -0.10276920071E+03  0.39378358936E+02  0.11933326799E+03  0.00000000000E+00 0.  1.
         21    1    1    2  504  505  0.12121751984E+03  0.13932448404E+03 -0.15396894226E+03  0.24044008433E+03  0.00000000000E+00 0.  1.
         21    1    1    2  505  502 -0.29997885641E+02  0.48063778670E+01  0.11158930778E+03  0.11565097502E+03  0.00000000000E+00 0.  1.
          2    1    1    2  501    0 -0.45086510735E+02 -0.41361661196E+02 -0.34980251214E+04  0.34985601796E+04  0.00000000000E+00 0. -1.
<scales pt_clust_3="131.41849" pt_clust_4="14000.00000" pt_clust_5="30.38049" pt_clust_6="61.22589"></scales>
<clustering>
<clus scale="   30.380">  1  5  2 -1</clus>
<clus scale="   61.226">  2  6  1 -1</clus>
<clus scale="  131.418">  1  3  2 -1</clus>
<clus scale="   30.380">  1  3  2 -1</clus>
</clustering>
</event>
<event>
 6    0  0.6851428E+002  0.6855747E+02  0.7546771E-02  0.1365068E+00
         21   -1    0    0  504  502  0.00000000000E+00  0.00000000000E+00  0.42672606476E+02  0.42672606476E+02  0.00000000000E+00 0.  1.
         -3   -1    0    0    0  501 -0.00000000000E+00 -0.00000000000E+00 -0.20593558082E+04  0.20593558082E+04  0.00000000000E+00 0.  1.
         21    1    1    2  503  502  0.20512172967E+02 -0.68917882071E+02 -0.28984161297E+02  0.77527448784E+02  0.00000000000E+00 0.  1.
         21    1    1    2  504  501 -0.43714910124E+02  0.50126198371E+02 -0.84835951553E+02  0.10779966515E+03  0.00000000000E+00 0. -1.
         21    1    1    2  505  503  0.68020396751E+02  0.24905358291E+02 -0.19152314395E+03  0.20476368309E+03  0.00000000000E+00 0.  1.
         -3    1    1    2    0  505 -0.44817659595E+02 -0.61136745916E+01 -0.17113399449E+04  0.17119376176E+04  0.00000000000E+00 0.  1.
<scales pt_clust_3="14000.00000" pt_clust_4="68.55747" pt_clust_5="47.57685" pt_clust_6="45.23273"></scales>
<clustering>
<clus scale="   45.233">  2  6  1 -1</clus>
<clus scale="   47.577">  2  5  1 -1</clus>
<clus scale="   68.557">  2  4  1 -1</clus>
<clus scale="   68.557">  1  3  2 -1</clus>
</clustering>
</event>
<event>
 6    0  0.6851428E+002  0.8088134E+02  0.7546771E-02  0.1326569E+00
         21   -1    0    0  503  502  0.00000000000E+00  0.00000000000E+00  0.28126067453E+03  0.28126067453E+03  0.00000000000E+00 0. -1.
          2   -1    0    0  504    0 -0.00000000000E+00 -0.00000000000E+00 -0.11000582202E+04  0.11000582202E+04  0.00000000000E+00 0.  1.
         21    1    1    2  503  505  0.22191047162E+02 -0.85153624675E+02  0.38224092855E+02  0.95940938311E+02  0.00000000000E+00 0. -1.
         21    1    1    2  504  502  0.20107273700E+02  0.38996869169E+02 -0.19417998853E+02  0.47980380783E+02  0.00000000000E+00 0. -1.
         21    1    1    2  505  501  0.38190135062E+02  0.34940552140E+02  0.19492253274E+03  0.20167826450E+03  0.00000000000E+00 0. -1.
          2    1    1    2  501    0 -0.80488455924E+02  0.11216203366E+02 -0.10325261724E+04  0.10357193111E+04  0.00000000000E+00 0.  1.
<scales pt_clust_3="80.12856" pt_clust_4="43.87549" pt_clust_5="80.88134" pt_clust_6="14000.00000"></scales>
<clustering>
<clus scale="   43.875">  1  4  2 -1</clus>
<clus scale="   80.129">  1  3  2 -1</clus>
<clus scale="   80.881">  1  5  2 -1</clus>
<clus scale="   43.875">  1  3  2 -1</clus>
</clustering>
</event>
<event>
 6    0  0.6851428E+002  0.1227165E+03  0.7546771E-02  0.1238682E+00
          1   -1    0    0  504    0 -0.00000000000E+00  0.00000000000E+00  0.16555589950E+04  0.16555589950E+04  0.00000000000E+00 0. -1.
         21   -1    0    0  503  502  0.00000000000E+00 -0.00000000000E+00 -0.17680193173E+02  0.17680193173E+02  0.00000000000E+00 0. -1.
         21    1    1    2  503  501 -0.31835430251E+02  0.24053149539E+01  0.70589864927E+02  0.77473925870E+02  0.00000000000E+00 0. -1.
         21    1    1    2  504  505 -0.18994936169E+02 -0.71764568879E+02  0.23040086983E+03  0.24206511885E+03  0.00000000000E+00 0.  1.
         21    1    1    2  505  502  0.10128157741E+02 -0.40051854853E+02  0.68803557958E+02  0.80253724176E+02  0.00000000000E+00 0. -1.
          1    1    1    2  501    0  0.40702208679E+02  0.10941110878E+03  0.12680845091E+04  0.12734464193E+04  0.00000000000E+00 0. -1.
<scales pt_clust_3="31.92617" pt_clust_4="31.51423" pt_clust_5="31.51423" pt_clust_6="115.21603"></scales>
<clustering>
<clus scale="   31.514">  4  5 -1 -1</clus>
<clus scale="   31.926">  2  3  1 -1</clus>
<clus scale="  115.216">  1  6  2 -1</clus>
<clus scale="   31.926">  2  3  1 -1</clus>
</clustering>
</event>
<event>
 6    0  0.6851428E+002  0.9822295E+02  0.7546771E-02  0.1284078E+00
          1   -1    0    0  505    0 -0.00000000000E+00  0.00000000000E+00  0.38638034642E+03  0.38638034642E+03  0.00000000000E+00 0.  1.
         21   -1    0    0  504  502  0.00000000000E+00 -0.00000000000E+00 -0.29370507530E+03  0.29370507530E+03  0.00000000000E+00 0. -1.
         21    1    1    2  503  502 -0.30889502637E+02 -0.28320752844E+02 -0.19612950747E+03  0.20055675036E+03  0.00000000000E+00 0. -1.
         21    1    1    2  504  501 -0.28891661822E+02 -0.17429333956E+02 -0.25384930302E+01  0.33837165246E+02  0.00000000000E+00 0. -1.
         21    1    1    2  505  503 -0.42352709357E+02  0.60994102213E+02 -0.49702091873E+02  0.89355080612E+02  0.00000000000E+00 0. -1.
          1    1    1    2  501    0  0.10213387382E+03 -0.15244015413E+02  0.34104536349E+03  0.35633642551E+03  0.00000000000E+00 0.  1.
<scales pt_clust_3="65.89301" pt_clust_4="33.74181" pt_clust_5="14000.00000" pt_clust_6="98.22295"></scales>
<clustering>
<clus scale="   33.742">  2  4  1 -1</clus>
<clus scale="   65.893">  2  3  1 -1</clus>
<clus scale="   98.223">  1  6  2 -1</clus>
<clus scale="   33.742">  2  3  1 -1</clus>
</clustering>
</event>
<event>
 6    0  0.6851428E+002  0.2321313E+03  0.7546771E-02  0.1125149E+00
         21   -1    0    0  503  502  0.00000000000E+00  0.00000000000E+00  0.35997644626E+02  0.35997644626E+02  0.00000000000E+00 0.  1.
          2   -1    0    0  505    0 -0.00000000000E+00 -0.00000000000E+00 -0.35486404306E+04  0.35486404306E+04  0.00000000000E+00 0. -1.
         21    1    1    2  503  501  0.86581833712E+01 -0.57007561656E+02 -0.39200422592E+02  0.69724453075E+02  0.00000000000E+00 0.  1.
         21    1    1    2  504  502 -0.12683955999E+03  0.11798502595E+03 -0.61275086475E+03  0.63676711801E+03  0.00000000000E+00 0.  1.
         21    1    1    2  505  504 -0.66027908444E+02  0.53410978037E+02 -0.46744663849E+03  0.47509870249E+03  0.00000000000E+00 0.  1.
          2    1    1    2  501    0  0.18420928506E+03 -0.11438844233E+03 -0.23932448601E+04  0.24030478016E+04  0.00000000000E+00 0. -1.
<scales pt_clust_3="57.66131" pt_clust_4="37.34322" pt_clust_5="37.34322" pt_clust_6="225.92127"></scales>
<clustering>
<clus scale="   37.343">  4  5 -1 -1</clus>
<clus scale="   57.661">  1  3  2 -1</clus>
<clus scale="  225.921">  2  6  1 -1</clus>
<clus scale="   57.661">  1  3  2 -1</clus>
</clustering>
</event>
<event>
 6    0  0.6851428E+002  0.8439638E+02  0.7546771E-02  0.1317019E+00
         21   -1    0    0  501  502  0.00000000000E+00  0.00000000000E+00  0.47175798360E+03  0.47175798360E+03  0.00000000000E+00 0.  1.
          4   -1    0    0  503    0 -0.00000000000E+00 -0.00000000000E+00 -0.33979430084E+03  0.33979430084E+03  0.00000000000E+00 0. -1.
         21    1    1    2  503  504 -0.21430937931E+02 -0.77649454909E+02 -0.13883894155E+02  0.81740353958E+02  0.00000000000E+00 0.  1.
         21    1    1    2  504  505  0.68475771441E+02  0.24860331056E+02  0.68772661653E+02  0.10018306406E+03  0.00000000000E+00 0.  1.
         21    1    1    2  505  502 -0.86632247243E+02  0.43157511826E+02  0.34515600329E+03  0.35846950177E+03  0.00000000000E+00 0.  1.
          4    1    1    2  501    0  0.39587413733E+02  0.96316120271E+01 -0.26808108803E+03  0.27115936465E+03  0.00000000000E+00 0. -1.
<scales pt_clust_3="71.30275" pt_clust_4="84.39638" pt_clust_5="14000.00000" pt_clust_6="40.74225"></scales>
<clustering>
<clus scale="   40.742">  2  6  1 -1</clus>
<clus scale="   71.303">  2  3  1 -1</clus>
<clus scale="   84.396">  2  4  1 -1</clus>
<clus scale="   84.396">  1  3  2 -1</clus>
</clustering>
</event>
<event>
 6    0  0.6851428E+002  0.1677683E+03  0.7546771E-02  0.1180195E+00
         21   -1    0    0  505  502  0.00000000000E+00  0.00000000000E+00  0.56796187800E+03  0.56796187800E+03  0.00000000000E+00 0.  1.
         -2   -1    0    0    0  501 -0.00000000000E+00 -0.00000000000E+00 -0.26126698040E+03  0.26126698040E+03  0.00000000000E+00 0.  1.
         21    1    1    2  503  502 -0.15971333083E+03 -0.15076436148E+02  0.38200768130E+03  0.41432537400E+03  0.00000000000E+00 0.  1.
         21    1    1    2  504  501  0.64689267568E+01 -0.42481472153E+02 -0.79382451770E+01  0.43698263423E+02  0.00000000000E+00 0. -1.
         21    1    1    2  505  504  0.24842977091E+03  0.20084546845E+02 -0.92529309849E+02  0.26586164311E+03  0.00000000000E+00 0.  1.
         -2    1    1    2    0  503 -0.95185366832E+02  0.37473361456E+02  0.25154771325E+02  0.10534357787E+03  0.00000000000E+00 0.  1.
<scales pt_clust_3="14000.00000" pt_clust_4="42.97118" pt_clust_5="167.76825" pt_clust_6="98.82392"></scales>
<clustering>
<clus scale="   42.971">  2  4  1 -1</clus>
<clus scale="   98.824">  2  6  1 -1</clus>
<clus scale="  167.768">  2  5  1 -1</clus>
<clus scale="  167.768">  1  3  2 -1</clus>
</clustering>
</event>
<event>
 6    0  0.6851428E+002  0.1928255E+03  0.7546771E-02  0.1155937E+00
         21   -1    0    0  505  502  0.00000000000E+00  0.00000000000E+00  0.17211257487E+03  0.17211257487E+03  0.00000000000E+00 0. -1.
          1   -1    0    0  502    0 -0.00000000000E+00 -0.00000000000E+00 -0.25757000717E+04  0.25757000717E+04  0.00000000000E+00 0.  1.
         21    1    1    2  503  504 -0.13430573457E+02  0.58061881800E+02  0.91733275923E+02  0.10939175624E+03  0.00000000000E+00 0. -1.
         21    1    1    2  504  501  0.30142686309E+02  0.86441749496E+02  0.25984991930E+02  0.95162899280E+02  0.00000000000E+00 0. -1.
         21    1    1    2  505  503  0.22542047188E+02  0.25828418302E+02 -0.29207163530E+02  0.45036757042E+02  0.00000000000E+00 0. -1.
          1    1    1    2  501    0 -0.39254160040E+02 -0.17033204960E+03 -0.24920986012E+04  0.24982212340E+04  0.00000000000E+00 0.  1.
<scales pt_clust_3="69.83336" pt_clust_4="69.83336" pt_clust_5="34.28194" pt_clust_6="174.23336"></scales>
<clustering>
<clus scale="   34.282">  1  5  2 -1</clus>
<clus scale="   69.833">  3  4 -1 -1</clus>
<clus scale="  174.233">  2  6  1 -1</clus>
<clus scale="   34.282">  1  3  2 -1</clus>
</clustering>
</event>
<event>
 6    0  0.6851428E+002  0.1038381E+03  0.7546771E-02  0.1272426E+00
          2   -1    0    0  503    0 -0.00000000000E+00  0.00000000000E+00  0.60122484233E+03  0.60122484233E+03  0.00000000000E+00 0.  1.
         21   -1    0    0  505  502  0.00000000000E+00 -0.00000000000E+00 -0.12385555755E+03  0.12385555755E+03  0.00000000000E+00 0.  1.
         21    1    1    2  503  504  0.16268385700E+02 -0.86590917338E+02  0.77796291119E+01  0.88448685507E+02  0.00000000000E+00 0.  1.
         21    1    1    2  504  502 -0.78756525619E+01 -0.56493314269E+02 -0.53651244311E+02  0.78306937602E+02  0.00000000000E+00 0.  1.
         21    1    1    2  505  501  0.46065987598E+01  0.37878702983E+02  0.18194903710E+02  0.42273767431E+02  0.00000000000E+00 0. -1.
          2    1    1    2  501    0 -0.12999331898E+02  0.10520552862E+03  0.50504599628E+03  0.51605100934E+03  0.00000000000E+00 0.  1.
<scales pt_clust_3="103.83811" pt_clust_4="34.52965" pt_clust_5="38.15779" pt_clust_6="14000.00000"></scales>
<clustering>
<clus scale="   38.158">  2  5  1 -1</clus>
<clus scale="   34.530">  2  4  1 -1</clus>
<clus scale="  103.838">  2  3  1 -1</clus>
<clus scale="   38.158">  2  3  1 -1</clus>
</clustering>
</event>
<event>
 6    0  0.6851428E+002  0.1206294E+03  0.7546771E-02  0.1242062E+00
          2   -1    0    0  505    0 -0.00000000000E+00  0.00000000000E+00  0.13493778488E+04  0.13493778488E+04  0.00000000000E+00 0.  1.
         21   -1    0    0  501  502  0.00000000000E+00 -0.00000000000E+00 -0.17241499131E+02  0.17241499131E+02  0.00000000000E+00 0.  1.
         21    1    1    2  503  502 -0.82262043271E+02  0.22212006859E+02  0.35360650542E+03  0.36372788962E+03  0.00000000000E+00 0.  1.
         21    1    1    2  504  503 -0.28738639550E+02  0.45491277977E+02  0.28586404317E+03  0.29088419853E+03  0.00000000000E+00 0.  1.
         21    1    1    2  505  504  0.60376224108E+02  0.19773923941E+02  0.28574857592E+03  0.29272605820E+03  0.00000000000E+00 0.  1.
          2    1    1    2  501    0  0.50624458713E+02 -0.87477208777E+02  0.40691722515E+03  0.41928120158E+03  0.00000000000E+00 0.  1.
<scales pt_clust_3="41.21190" pt_clust_4="41.21190" pt_clust_5="63.53185" pt_clust_6="108.91251"></scales>
<clustering>
<clus scale="   41.212">  3  4 -1 -1</clus>
<clus scale="   63.532">  1  5  2 -1</clus>
<clus scale="  108.913">  2  6  1 -1</clus>
<clus scale="  108.913">  2  3  1 -1</clus>
</clustering>
</event>
<event>
 6    0  0.6851428E+002  0.1156248E+03  0.7546771E-02  0.1250494E+00
         21   -1    0    0  503  502  0.00000000000E+00  0.00000000000E+00  0.36338944450E+03  0.36338944450E+03  0.00000000000E+00 0.  1.
          2   -1    0    0  505    0 -0.00000000000E+00 -0.00000000000E+00 -0.44175091978E+03  0.44175091978E+03  0.00000000000E+00 0.  1.
         21    1    1    2  503  504 -0.33653876188E+02 -0.18084268548E+02  0.17328032940E+02  0.41950981836E+02  0.00000000000E+00 0.  1.
         21    1    1    2  504  501  0.13898913451E+03 -0.61280610742E+02  0.11818895525E+03  0.19246278057E+03  0.00000000000E+00 0.  1.
         21    1    1    2  505  502 -0.22031539947E+01  0.31507115778E+02  0.16868988486E+03  0.17162118018E+03  0.00000000000E+00 0.  1.
          2    1    1    2  501    0 -0.10313210432E+03  0.47857763513E+02 -0.38256834834E+03  0.39910542169E+03  0.00000000000E+00 0.  1.
<scales pt_clust_3="36.48349" pt_clust_4="115.62480" pt_clust_5="31.58405" pt_clust_6="14000.00000"></scales>
<clustering>
<clus scale="   31.584">  1  5  2 -1</clus>
<clus scale="   36.483">  1  3  2 -1</clus>
<clus scale="  115.625">  1  4  2 -1</clus>
<clus scale="   31.584">  1  3  2 -1</clus>
</clustering>
</event>
<event>
 6    0  0.6851428E+002  0.8590173E+02  0.7546771E-02  0.1313091E+00
         21   -1    0    0  504  502  0.00000000000E+00  0.00000000000E+00  0.81968793753E+02  0.81968793753E+02  0.00000000000E+00 0. -1.
          2   -1    0    0  505    0 -0.00000000000E+00 -0.00000000000E+00 -0.98026678171E+03  0.98026678171E+03  0.00000000000E+00 0. -1.
         21    1    1    2  503  501 -0.11942118821E+02  0.48712679639E+02 -0.10961685309E+03  0.12054623113E+03  0.00000000000E+00 0.  1.
         21    1    1    2  504  503  0.37962702501E+02  0.69852008511E+02 -0.27316684708E+03  0.28450060847E+03  0.00000000000E+00 0. -1.
         21    1    1    2  505  502 -0.31319528607E+02 -0.80707522255E+02  0.43488348254E+02  0.96880614442E+02  0.00000000000E+00 0. -1.
          2    1    1    2  501    0  0.52989449273E+01 -0.37857165894E+02 -0.55900263604E+03  0.56030812141E+03  0.00000000000E+00 0. -1.
<scales pt_clust_3="39.76400" pt_clust_4="14000.00000" pt_clust_5="85.90173" pt_clust_6="38.22622"></scales>
<clustering>
<clus scale="   38.226">  2  6  1 -1</clus>
<clus scale="   39.764">  2  3  1 -1</clus>
<clus scale="   85.902">  1  5  2 -1</clus>
<clus scale="   85.902">  1  3  2 -1</clus>
</clustering>
</event>
<event>
 6    0  0.6851428E+002  0.1070908E+03  0.7546771E-02  0.1266054E+00
          1   -1    0    0  504    0 -0.00000000000E+00  0.00000000000E+00  0.18051603937E+04  0.18051603937E+04  0.00000000000E+00 0. -1.
         21   -1    0    0  505  502  0.00000000000E+00 -0.00000000000E+00 -0.23078642695E+02  0.23078642695E+02  0.00000000000E+00 0.  1.
         21    1    1    2  503  502  0.14978507636E+02  0.27161349321E+02  0.37183841217E+02  0.48422439381E+02  0.00000000000E+00 0.  1.
         21    1    1    2  504  503 -0.49828153699E+02  0.90869937168E+02  0.18507580347E+03  0.21211610833E+03  0.00000000000E+00 0.  1.
         21    1    1    2  505  501  0.39133877071E+02 -0.82138537295E+02  0.56977545737E+03  0.57699416935E+03  0.00000000000E+00 0.  1.
          1    1    1    2  501    0 -0.42842310077E+01 -0.35892749194E+02  0.99004664896E+03  0.99070631935E+03  0.00000000000E+00 0. -1.
<scales pt_clust_3="31.01765" pt_clust_4="107.09084" pt_clust_5="14000.00000" pt_clust_6="35.60517"></scales>
<clustering>
<clus scale="   31.018">  2  3  1 -1</clus>
<clus scale="   35.605">  1  6  2 -1</clus>
<clus scale="  107.091">  2  4  1 -1</clus>
<clus scale="   31.018">  2  3  1 -1</clus>
</clustering>
</event>
<event>
 6    0  0.6851428E+002  0.1493695E+03  0.7546771E-02  0.1201250E+00
          2   -1    0    0  502    0 -0.00000000000E+00  0.00000000000E+00  0.65307767796E+03  0.65307767796E+03  0.00000000000E+00 0.  1.
         21   -1    0    0  505  502  0.00000000000E+00 -0.00000000000E+00 -0.58948942897E+02  0.58948942897E+02  0.00000000000E+00 0.  1.
         21    1    1    2  503  501 -0.41652114213E+02  0.32336895919E+02  0.31081418546E+03  0.31525550168E+03  0.00000000000E+00 0.  1.
         21    1    1    2  504  503  0.67493509749E+02 -0.27460839184E+02  0.16698674516E+02  0.74755048509E+02  0.00000000000E+00 0.  1.
         21    1    1    2  505  504  0.50689297062E+02 -0.45307884258E+02  0.38725972765E+02  0.78242636581E+02  0.00000000000E+00 0.  1.
          2    1    1    2  501    0 -0.76530692598E+02  0.40431827523E+02  0.22788990232E+03  0.24377343409E+03  0.00000000000E+00 0.  1.
<scales pt_clust_3="43.09757" pt_clust_4="142.60575" pt_clust_5="31.65476" pt_clust_6="43.09757"></scales>
<clustering>
<clus scale="   31.655">  4  5 -1 -1</clus>
<clus scale="   43.098">  3  6 -1 -1</clus>
<clus scale="  142.606">  2  4  1 -1</clus>
<clus scale="  142.606">  2  3  1 -1</clus>
</clustering>
</event>
<event>
 6    0  0.6851428E+002  0.1159363E+03  0.7546771E-02  0.1249955E+00
         21   -1    0    0  503  502  0.00000000000E+00  0.00000000000E+00  0.20908066965E+02  0.20908066965E+02  0.00000000000E+00 0.  1.
         -2   -1    0    0    0  501 -0.00000000000E+00 -0.00000000000E+00 -0.26069792200E+04  0.26069792200E+04  0.00000000000E+00 0.  1.
         21    1    1    2  503  504  0.67031821183E+02 -0.87496302068E+02 -0.78223755480E+03  0.78996484737E+03  0.00000000000E+00 0.  1.
         21    1    1    2  504  501  0.65788281674E+02  0.36985101787E+01 -0.40434154323E+03  0.40967531115E+03  0.00000000000E+00 0.  1.
         21    1    1    2  505  502 -0.10648267486E+03  0.56150838224E+02 -0.24356785680E+03  0.27169243189E+03  0.00000000000E+00 0.  1.
         -2    1    1    2    0  505 -0.26337427998E+02  0.27646953665E+02 -0.11559241982E+04  0.11565546966E+04  0.00000000000E+00 0.  1.
<scales pt_clust_3="115.93634" pt_clust_4="59.51209" pt_clust_5="14000.00000" pt_clust_6="38.18395"></scales>
<clustering>
<clus scale="   38.184">  2  6  1 -1</clus>
<clus scale="   59.512">  2  4  1 -1</clus>
<clus scale="  115.936">  2  3  1 -1</clus>
<clus scale="  115.936">  1  3  2 -1</clus>
</clustering>
</event>
<event>
 6    0  0.6851428E+002  0.1031950E+03  0.7546771E-02  0.1273717E+00
          1   -1    0    0  503    0 -0.00000000000E+00  0.00000000000E+00  0.47830519596E+03  0.47830519596E+03  0.00000000000E+00 0.  1.
         21   -1    0    0  504  502  0.00000000000E+00 -0.00000000000E+00 -0.23121118411E+03  0.23121118411E+03  0.00000000000E+00 0. -1.
         21    1    1    2  503  505  0.78739671167E+02 -0.89371030332E+02  0.22655471391E+03  0.25595733096E+03  0.00000000000E+00 0.  1.
         21    1    1    2  504  501  0.70772919273E+02  0.10594599625E+03 -0.20804149036E+01  0.12742718843E+03  0.00000000000E+00 0. -1.
         21    1    1    2  505  502 -0.37152566467E+02 -0.19422086849E+01 -0.13047021814E+03  0.13567078975E+03  0.00000000000E+00 0. -1.
          1    1    1    2  501    0 -0.11236002397E+03 -0.14632757236E+02  0.15308993098E+03  0.19046107093E+03  0.00000000000E+00 0.  1.
<scales pt_clust_3="14000.00000" pt_clust_4="114.43162" pt_clust_5="37.20330" pt_clust_6="103.19499"></scales>
<clustering>
<clus scale="   37.203">  2  5  1 -1</clus>
<clus scale="  114.432">  2  4  1 -1</clus>
<clus scale="  103.195">  2  6  1 -1</clus>
<clus scale="   37.203">  2  3  1 -1</clus>
</clustering>
</event>
<event>
 6    0  0.6851428E+002  0.9212647E+02  0.7546771E-02  0.1297782E+00
          1   -1    0    0  504    0 -0.00000000000E+00  0.00000000000E+00  0.40668616293E+04  0.40668616293E+04  0.00000000000E+00 0. -1.
         21   -1    0    0  503  502  0.00000000000E+00 -0.00000000000E+00 -0.86544427397E+01  0.86544427397E+01  0.00000000000E+00 0. -1.
         21    1    1    2  503  501  0.32151725627E+02 -0.18604933755E+01  0.98300890172E+02  0.10344206062E+03  0.00000000000E+00 0. -1.
         21    1    1    2  504  505 -0.64670178750E+02 -0.41351446232E+02  0.72553894489E+03  0.72958819527E+03  0.00000000000E+00 0. -1.
         21    1    1    2  505  502 -0.19756632832E+02 -0.43120899265E+02  0.17099820642E+03  0.17745456628E+03  0.00000000000E+00 0. -1.
          1    1    1    2  501    0  0.52275085955E+02  0.86332838872E+02  0.30633691450E+04  0.30650312498E+04  0.00000000000E+00 0. -1.
<scales pt_clust_3="32.20551" pt_clust_4="92.12647" pt_clust_5="44.19045" pt_clust_6="14000.00000"></scales>
<clustering>
<clus scale="   32.206">  2  3  1 -1</clus>
<clus scale="   44.190">  2  5  1 -1</clus>
<clus scale="   92.126">  2  4  1 -1</clus>
<clus scale="   32.206">  2  3  1 -1</clus>
</clustering>
</event>
<event>
 6    0  0.6851428E+002  0.1199812E+03  0.7546771E-02  0.1243128E+00
          2   -1    0    0  504    0 -0.00000000000E+00  0.00000000000E+00  0.26755741743E+03  0.26755741743E+03  0.00000000000E+00 0.  1.
         21   -1    0    0  505  502  0.00000000000E+00 -0.00000000000E+00 -0.67440917001E+03  0.67440917001E+03  0.00000000000E+00 0.  1.
         21    1    1    2  503  502  0.34370451863E+02 -0.37926024972E+01 -0.44878668060E+03  0.45011686980E+03  0.00000000000E+00 0.  1.
         21    1    1    2  504  503 -0.11107261946E+03 -0.34243483249E+02 -0.95611974769E+01  0.11662400883E+03  0.00000000000E+00 0. -1.
         21    1    1    2  505  501  0.85078658231E+02  0.69165140943E+02 -0.14180737159E+03  0.17925268602E+03  0.00000000000E+00 0.  1.
          2    1    1    2  501    0 -0.83764906327E+01 -0.31129055197E+02  0.19330349709E+03  0.19597302279E+03  0.00000000000E+00 0.  1.
<scales pt_clust_3="34.53549" pt_clust_4="119.98121" pt_clust_5="14000.00000" pt_clust_6="32.23637"></scales>
<clustering>
<clus scale="   32.236">  1  6  2 -1</clus>
<clus scale="   34.535">  2  3  1 -1</clus>
<clus scale="  119.981">  1  4  2 -1</clus>
<clus scale="   34.535">  2  3  1 -1</clus>
</clustering>
</event>
<event>
 6    0  0.6851428E+002  0.1228609E+03  0.7546771E-02  0.1238451E+00
         21   -1    0    0  505  502  0.00000000000E+00  0.00000000000E+00  0.84668578614E+02  0.84668578614E+02  0.00000000000E+00 0. -1.
          1   -1    0    0  504    0 -0.00000000000E+00 -0.00000000000E+00 -0.95701118138E+03  0.95701118138E+03  0.00000000000E+00 0. -1.
         21    1    1    2  503  502  0.46515052420E+02  0.51453567945E+02 -0.10730050576E+01  0.69370534780E+02  0.00000000000E+00 0. -1.
         21    1    1    2  504  503  0.39116480793E+01  0.10653116483E+03 -0.64718526663E+02  0.12471037553E+03  0.00000000000E+00 0. -1.
         21    1    1    2  505  501 -0.93709972165E+01 -0.74377331782E+02 -0.62106754145E+02  0.97350151424E+02  0.00000000000E+00 0. -1.
          1    1    1    2  501    0 -0.41055703282E+02 -0.83607400998E+02 -0.74444431690E+03  0.75024869826E+03  0.00000000000E+00 0. -1.
<scales pt_clust_3="61.62629" pt_clust_4="61.62629" pt_clust_5="74.96535" pt_clust_6="96.21825"></scales>
<clustering>
<clus scale="   61.626">  3  4 -1 -1</clus>
<clus scale="   74.965">  1  5  2 -1</clus>
<clus scale="   96.218">  2  6  1 -1</clus>
<clus scale="   74.965">  1  3  2 -1</clus>
</clustering>
</event>
<event>
 6    0  0.6851428E+002  0.1501994E+03  0.7546771E-02  0.1200228E+00
          1   -1    0    0  503    0 -0.00000000000E+00  0.00000000000E+00  0.83340261233E+03  0.83340261233E+03  0.00000000000E+00 0. -1.
         21   -1    0    0  505  502  0.00000000000E+00 -0.00000000000E+00 -0.70449382826E+02  0.70449382826E+02  0.00000000000E+00 0. -1.
         21    1    1    2  503  502 -0.33206068589E+02  0.65560629627E+00  0.10207534176E+03  0.10734266722E+03  0.00000000000E+00 0.  1.
         21    1    1    2  504  501  0.11242895932E+03  0.19875778993E+02  0.35451618854E+03  0.37244737268E+03  0.00000000000E+00 0. -1.
         21    1    1    2  505  504 -0.12180092051E+03 -0.59274261202E+02  0.26100621401E+02  0.13794979056E+03  0.00000000000E+00 0. -1.
          1    1    1    2  501    0  0.42578029777E+02  0.38742875913E+02  0.28026107780E+03  0.28611216469E+03  0.00000000000E+00 0. -1.
<scales pt_clust_3="33.21254" pt_clust_4="40.59787" pt_clust_5="138.79724" pt_clust_6="40.59787"></scales>
<clustering>
<clus scale="   33.213">  1  3  2 -1</clus>
<clus scale="   40.598">  4  6 -1 -1</clus>
<clus scale="  138.797">  2  5  1 -1</clus>
<clus scale="  138.797">  2  3  1 -1</clus>
</clustering>
</event>
<event>
 6    0  0.6851428E+002  0.9245987E+02  0.7546771E-02  0.1297002E+00
          1   -1    0    0  504    0 -0.00000000000E+00  0.00000000000E+00  0.65358761000E+02  0.65358761000E+02  0.00000000000E+00 0.  1.
         21   -1    0    0  503  502  0.00000000000E+00 -0.00000000000E+00 -0.93747128594E+03  0.93747128594E+03  0.00000000000E+00 0. -1.
         21    1    1    2  503  505  0.30171451106E+01  0.34341523095E+02 -0.13417153438E+03  0.13852957811E+03  0.00000000000E+00 0. -1.
         21    1    1    2  504  502  0.70863624912E+02  0.13924478363E+02 -0.42162418692E+03  0.42776453737E+03  0.00000000000E+00 0. -1.
         21    1    1    2  505  501 -0.10766849724E+03  0.39530070347E+02 -0.32247154902E+03  0.34226164215E+03  0.00000000000E+00 0. -1.
          1    1    1    2  501    0  0.33787727214E+02 -0.87796071805E+02  0.61547453822E+01  0.94274289313E+02  0.00000000000E+00 0.  1.
<scales pt_clust_3="34.47381" pt_clust_4="79.26678" pt_clust_5="92.45987" pt_clust_6="14000.00000"></scales>
<clustering>
<clus scale="   34.474">  2  3  1 -1</clus>
<clus scale="   79.267">  2  4  1 -1</clus>
<clus scale="   92.460">  2  5  1 -1</clus>
<clus scale="   34.474">  2  3  1 -1</clus>
</clustering>
</event>
<event>
 6    0  0.6851428E+002  0.1862107E+03  0.7546771E-02  0.1161924E+00
         21   -1    0    0  505  502  0.00000000000E+00  0.00000000000E+00  0.20220106900E+03  0.20220106900E+03  0.00000000000E+00 0.  1.
         -1   -1    0    0    0  501 -0.00000000000E+00 -0.00000000000E+00 -0.76822246195E+03  0.76822246195E+03  0.00000000000E+00 0. -1.
         21    1    1    2  503  502 -0.25277015451E+02 -0.55829519044E+02 -0.13475511794E+02  0.62749120511E+02  0.00000000000E+00 0. -1.
         21    1    1    2  504  501  0.17907100135E+02 -0.50652872476E+02  0.31985379195E+02  0.62525532445E+02  0.00000000000E+00 0. -1.
         21    1    1    2  505  504 -0.35810303741E+01 -0.78235343288E+02  0.10512986698E+03  0.13109493373E+03  0.00000000000E+00 0.  1.
         -1    1    1    2    0  503  0.10950945690E+02  0.18471773481E+03 -0.68966112733E+03  0.71405394426E+03  0.00000000000E+00 0. -1.
<scales pt_clust_3="61.28509" pt_clust_4="35.82475" pt_clust_5="35.82475" pt_clust_6="181.11752"></scales>
<clustering>
<clus scale="   35.825">  4  5 -1 -1</clus>
<clus scale="   61.285">  1  3  2 -1</clus>
<clus scale="  181.118">  2  6  1 -1</clus>
<clus scale="   61.285">  1  3  2 -1</clus>
</clustering>
</event>
<event>
 6    0  0.6851428E+002  0.6377119E+02  0.7546771E-02  0.1382654E+00
         21   -1    0    0  504  502  0.00000000000E+00  0.00000000000E+00  0.17692919541E+03  0.17692919541E+03  0.00000000000E+00 0.  1.
          2   -1    0    0  503    0 -0.00000000000E+00 -0.00000000000E+00 -0.64070747368E+03  0.64070747368E+03  0.00000000000E+00 0. -1.
         21    1    1    2  503  502  0.37020262282E+02 -0.80665746185E+02 -0.36219137947E+02  0.95860776028E+02  0.00000000000E+00 0.  1.
         21    1    1    2  504  505 -0.26381550279E+02 -0.28443567350E+02  0.10240023440E+03  0.10950265168E+03  0.00000000000E+00 0.  1.
         21    1    1    2  505  501  0.24902293231E+02  0.57874592680E+02  0.14173464246E+02  0.64579251891E+02  0.00000000000E+00 0.  1.
          2    1    1    2  501    0 -0.35541005234E+02  0.51234720856E+02 -0.54413283898E+03  0.54769398949E+03  0.00000000000E+00 0. -1.
<scales pt_clust_3="14000.00000" pt_clust_4="38.79462" pt_clust_5="43.32882" pt_clust_6="63.77119"></scales>
<clustering>
<clus scale="   38.795">  1  4  2 -1</clus>
<clus scale="   43.329">  1  5  2 -1</clus>
<clus scale="   63.771">  2  6  1 -1</clus>
<clus scale="   38.795">  1  3  2 -1</clus>
</clustering>
</event>
<event>
 6    0  0.6851428E+002  0.2719584E+03  0.7546771E-02  0.1100164E+00
          1   -1    0    0  503    0 -0.00000000000E+00  0.00000000000E+00  0.85801907284E+03  0.85801907284E+03  0.00000000000E+00 0. -1.
         21   -1    0    0  501  502  0.00000000000E+00 -0.00000000000E+00 -0.95142017775E+03  0.95142017775E+03  0.00000000000E+00 0.  1.
         21    1    1    2  503  505 -0.14271715641E+03 -0.41403593421E+02  0.11762958289E+02  0.14906646662E+03  0.00000000000E+00 0.  1.
         21    1    1    2  504  502 -0.15812623138E+03  0.81856053650E+02 -0.37992084075E+03  0.41957617164E+03  0.00000000000E+00 0.  1.
         21    1    1    2  505  504 -0.16506230258E+02 -0.28506266603E+03 -0.37869540741E+03  0.47428197393E+03  0.00000000000E+00 0.  1.
          1    1    1    2  501    0  0.31734961805E+03  0.24461020580E+03  0.65345218496E+03  0.76651463840E+03  0.00000000000E+00 0. -1.
<scales pt_clust_3="148.60163" pt_clust_4="180.82229" pt_clust_5="271.95843" pt_clust_6="14000.00000"></scales>
<clustering>
<clus scale="  148.602">  1  3  2 -1</clus>
<clus scale="  180.822">  2  4  1 -1</clus>
<clus scale="  271.958">  2  5  1 -1</clus>
<clus scale="  180.822">  2  3  1 -1</clus>
</clustering>
</event>
<event>
 6    0  0.6851428E+002  0.8541017E+02  0.7546771E-02  0.1314363E+00
         21   -1    0    0  503  502  0.00000000000E+00  0.00000000000E+00  0.26893986338E+02  0.26893986338E+02  0.00000000000E+00 0.  1.
         -3   -1    0    0    0  501 -0.00000000000E+00 -0.00000000000E+00 -0.11893755344E+04  0.11893755344E+04  0.00000000000E+00 0.  1.
         21    1    1    2  503  505 -0.63558223510E+02  0.15509021787E+02 -0.94933519033E+02  0.11529332404E+03  0.00000000000E+00 0.  1.
         21    1    1    2  504  502  0.27594546476E+02  0.40927856196E+02 -0.68581367753E+02  0.84498239099E+02  0.00000000000E+00 0.  1.
         21    1    1    2  505  501 -0.24034230070E+02  0.54835056367E+02 -0.26259050109E+03  0.26932935021E+03  0.00000000000E+00 0.  1.
         -3    1    1    2    0  504  0.59997907103E+02 -0.11127193435E+03 -0.73637616020E+03  0.74714860740E+03  0.00000000000E+00 0.  1.
<scales pt_clust_3="61.49073" pt_clust_4="49.36141" pt_clust_5="85.41017" pt_clust_6="14000.00000"></scales>
<clustering>
<clus scale="   49.361">  1  4  2 -1</clus>
<clus scale="   61.491">  1  3  2 -1</clus>
<clus scale="   85.410">  2  5  1 -1</clus>
<clus scale="   49.361">  1  3  2 -1</clus>
</clustering>
</event>
<event>
 6    0  0.6851428E+002  0.1456954E+03  0.7546771E-02  0.1205864E+00
         -4   -1    0    0    0  501 -0.00000000000E+00  0.00000000000E+00  0.23970388955E+03  0.23970388955E+03  0.00000000000E+00 0.  1.
         21   -1    0    0  505  502  0.00000000000E+00 -0.00000000000E+00 -0.19539324805E+04  0.19539324805E+04  0.00000000000E+00 0. -1.
         21    1    1    2  503  501  0.11316601346E+03  0.40920640876E+02 -0.10885451795E+02  0.12082855008E+03  0.00000000000E+00 0.  1.
         21    1    1    2  504  502 -0.55941285644E+02 -0.74363263982E+01 -0.13483033608E+04  0.13494838566E+04  0.00000000000E+00 0. -1.
         21    1    1    2  505  503 -0.91131158283E+02 -0.54814571410E+02 -0.53167348607E+03  0.54220496221E+03  0.00000000000E+00 0. -1.
         -4    1    1    2    0  504  0.33906430465E+02  0.21330256931E+02  0.17663370773E+03  0.18111900119E+03  0.00000000000E+00 0.  1.
<scales pt_clust_3="14000.00000" pt_clust_4="56.08019" pt_clust_5="145.69539" pt_clust_6="40.05778"></scales>
<clustering>
<clus scale="   40.058">  1  6  2 -1</clus>
<clus scale="   56.080">  2  4  1 -1</clus>
<clus scale="  145.695">  2  5  1 -1</clus>
<clus scale="   56.080">  2  3  1 -1</clus>
</clustering>
</event>
<event>
 6    0  0.6851428E+002  0.1200363E+03  0.7546771E-02  0.1243037E+00
         21   -1    0    0  505  502  0.00000000000E+00  0.00000000000E+00  0.91372030369E+02  0.91372030369E+02  0.00000000000E+00 0. -1.
          2   -1    0    0  503    0 -0.00000000000E+00 -0.00000000000E+00 -0.28928652123E+04  0.28928652123E+04  0.00000000000E+00 0.  1.
         21    1    1    2  503  504 -0.54250329934E+02  0.17797970986E+02 -0.12744170903E+04  0.12756954127E+04  0.00000000000E+00 0.  1.
         21    1    1    2  504  502 -0.63148072262E+02  0.33184072579E+02 -0.92605328652E+03  0.92879682987E+03  0.00000000000E+00 0.  1.
         21    1    1    2  505  501  0.33016296508E+02 -0.11895148796E+02  0.82641883312E+02  0.89784471248E+02  0.00000000000E+00 0. -1.
          2    1    1    2  501    0  0.84382105688E+02 -0.39086894769E+02 -0.68366468846E+03  0.68996052883E+03  0.00000000000E+00 0.  1.
<scales pt_clust_3="32.68306" pt_clust_4="32.68306" pt_clust_5="35.09374" pt_clust_6="114.34207"></scales>
<clustering>
<clus scale="   32.683">  3  4 -1 -1</clus>
<clus scale="   35.094">  1  5  2 -1</clus>
<clus scale="  114.342">  1  6  2 -1</clus>
<clus scale="   35.094">  1  3  2 -1</clus>
</clustering>
</event>
<event>
 6    0  0.6851428E+002  0.9926009E+02  0.7546771E-02  0.1281860E+00
         21   -1    0    0  503  502  0.00000000000E+00  0.00000000000E+00  0.27753025521E+03  0.27753025521E+03  0.00000000000E+00 0.  1.
          1   -1    0    0  505    0 -0.00000000000E+00 -0.00000000000E+00 -0.37308757232E+03  0.37308757232E+03  0.00000000000E+00 0.  1.
         21    1    1    2  503  501  0.17619954680E+02  0.26545802242E+02 -0.43735824310E+00  0.31864301370E+02  0.00000000000E+00 0. -1.
         21    1    1    2  504  502 -0.56865324843E+02  0.59678953046E+01  0.83090314918E+02  0.10086268575E+03  0.00000000000E+00 0.  1.
         21    1    1    2  505  504 -0.29249271939E+02 -0.10453141084E+03  0.14421192379E+03  0.18049768620E+03  0.00000000000E+00 0.  1.
          1    1    1    2  501    0  0.68494642102E+02  0.72017713295E+02 -0.32242219756E+03  0.33739315421E+03  0.00000000000E+00 0.  1.
<scales pt_clust_3="31.86130" pt_clust_4="52.93286" pt_clust_5="14000.00000" pt_clust_6="99.26009"></scales>
<clustering>
<clus scale="   31.861">  1  3  2 -1</clus>
<clus scale="   52.933">  1  4  2 -1</clus>
<clus scale="   99.260">  2  6  1 -1</clus>
<clus scale="   31.861">  1  3  2 -1</clus>
</clustering>
</event>
<event>
 6    0  0.6851428E+002  0.1066275E+03  0.7546771E-02  0.1266946E+00
          2   -1    0    0  504    0 -0.00000000000E+00  0.00000000000E+00  0.71652514887E+03  0.71652514887E+03  0.00000000000E+00 0. -1.
         21   -1    0    0  505  502  0.00000000000E+00 -0.00000000000E+00 -0.11977254169E+04  0.11977254169E+04  0.00000000000E+00 0.  1.
         21    1    1    2  503  502  0.43290515926E+02  0.23565661920E+02 -0.41503165733E+03  0.41794818552E+03  0.00000000000E+00 0.  1.
         21    1    1    2  504  503  0.27414590599E+02  0.73211817012E+02 -0.66071520451E+03  0.66532406495E+03  0.00000000000E+00 0.  1.
         21    1    1    2  505  501  0.65903310434E+01 -0.37600774725E+02 -0.11170582989E+03  0.11804847798E+03  0.00000000000E+00 0.  1.
          2    1    1    2  501    0 -0.77295437568E+02 -0.59176704207E+02  0.70625242369E+03  0.71292983734E+03  0.00000000000E+00 0. -1.
<scales pt_clust_3="34.45003" pt_clust_4="34.45003" pt_clust_5="38.17395" pt_clust_6="97.40154"></scales>
<clustering>
<clus scale="   34.450">  3  4 -1 -1</clus>
<clus scale="   38.174">  2  5  1 -1</clus>
<clus scale="   97.402">  1  6  2 -1</clus>
<clus scale="   38.174">  2  3  1 -1</clus>
</clustering>
</event>
<event>
 6    0  0.6851428E+002  0.6636230E+03  0.7546771E-02  0.9781547E-01
          2   -1    0    0  505    0 -0.00000000000E+00  0.00000000000E+00  0.50977698474E+03  0.50977698474E+03  0.00000000000E+00 0.  1.
         21   -1    0    0  503  502  0.00000000000E+00 -0.00000000000E+00 -0.11979342248E+04  0.11979342248E+04  0.00000000000E+00 0.  1.
         21    1    1    2  503  501 -0.61064383619E+02  0.78184594544E+02 -0.11023513532E+03  0.14830197177E+03  0.00000000000E+00 0.  1.
         21    1    1    2  504  502  0.28603879952E+03 -0.99483069738E+02 -0.25434894092E+03  0.39548509421E+03  0.00000000000E+00 0.  1.
         21    1    1    2  505  504  0.40084182230E+03  0.55491997809E+02 -0.35227492518E+03  0.53651761503E+03  0.00000000000E+00 0.  1.
          2    1    1    2  501    0 -0.62581623821E+03 -0.34193522615E+02  0.28701761325E+02  0.62740652857E+03  0.00000000000E+00 0.  1.
<scales pt_clust_3="99.20529" pt_clust_4="139.24268" pt_clust_5="139.24268" pt_clust_6="643.03897"></scales>
<clustering>
<clus scale="   99.205">  2  3  1 -1</clus>
<clus scale="  139.243">  4  5 -1 -1</clus>
<clus scale="  643.039">  1  6  2 -1</clus>
<clus scale="   99.205">  2  3  1 -1</clus>
</clustering>
</event>
<event>
 6    0  0.6851428E+002  0.9100595E+02  0.7546771E-02  0.1300434E+00
         21   -1    0    0  505  502  0.00000000000E+00  0.00000000000E+00  0.73612391340E+02  0.73612391340E+02  0.00000000000E+00 0.  1.
          2   -1    0    0  503    0 -0.00000000000E+00 -0.00000000000E+00 -0.63223717257E+03  0.63223717257E+03  0.00000000000E+00 0.  1.
         21    1    1    2  503  502 -0.45236024963E+02 -0.28147872619E+02  0.63150676080E+01  0.53651474968E+02  0.00000000000E+00 0.  1.
         21    1    1    2  504  501 -0.59967917708E+02  0.37271095005E+02 -0.37013028113E+02  0.79719821419E+02  0.00000000000E+00 0.  1.
         21    1    1    2  505  504  0.14763773606E+02 -0.43652195070E+02 -0.12096523814E+02  0.47642512884E+02  0.00000000000E+00 0. -1.
          2    1    1    2  501    0  0.90440169065E+02  0.34528972683E+02 -0.51583029691E+03  0.52483575464E+03  0.00000000000E+00 0.  1.
<scales pt_clust_3="14000.00000" pt_clust_4="58.08921" pt_clust_5="46.08127" pt_clust_6="91.00595"></scales>
<clustering>
<clus scale="   46.081">  1  5  2 -1</clus>
<clus scale="   58.089">  1  4  2 -1</clus>
<clus scale="   91.006">  2  6  1 -1</clus>
<clus scale="   46.081">  1  3  2 -1</clus>
</clustering>
</event>
<event>
 6    0  0.6851428E+002  0.9066587E+02  0.7546771E-02  0.1301247E+00
         21   -1    0    0  504  502  0.00000000000E+00  0.00000000000E+00  0.40951680175E+02  0.40951680175E+02  0.00000000000E+00 0. -1.
          2   -1    0    0  503    0 -0.00000000000E+00 -0.00000000000E+00 -0.37321970682E+04  0.37321970682E+04  0.00000000000E+00 0.  1.
         21    1    1    2  503  502 -0.66603920799E+02  0.98104257825E+01 -0.10483948413E+03  0.12459391700E+03  0.00000000000E+00 0. -1.
         21    1    1    2  504  505  0.66912120116E+02 -0.45672463725E+02 -0.90703835229E+02  0.12161575345E+03  0.00000000000E+00 0. -1.
         21    1    1    2  505  501  0.68111264766E+02  0.25508014028E+01 -0.61226624472E+02  0.91620688275E+02  0.00000000000E+00 0. -1.
          2    1    1    2  501    0 -0.68419464084E+02  0.33311236539E+02 -0.34344754442E+04  0.34353183897E+04  0.00000000000E+00 0.  1.
<scales pt_clust_3="67.32256" pt_clust_4="43.95216" pt_clust_5="43.95216" pt_clust_6="76.96867"></scales>
<clustering>
<clus scale="   43.952">  4  5 -1 -1</clus>
<clus scale="   67.323">  1  3  2 -1</clus>
<clus scale="   76.969">  2  6  1 -1</clus>
<clus scale="   67.323">  1  3  2 -1</clus>
</clustering>
</event>
<event>
 6    0  0.6851428E+002  0.1386771E+03  0.7546771E-02  0.1215120E+00
         21   -1    0    0  503  502  0.00000000000E+00  0.00000000000E+00  0.19981565732E+03  0.19981565732E+03  0.00000000000E+00 0.  1.
          2   -1    0    0  505    0 -0.00000000000E+00 -0.00000000000E+00 -0.58859297239E+03  0.58859297239E+03  0.00000000000E+00 0. -1.
         21    1    1    2  503  501  0.35585880285E+02 -0.14584883592E+03  0.10277805924E+03  0.18193836120E+03  0.00000000000E+00 0.  1.
         21    1    1    2  504  502 -0.62524262592E+02  0.30008673360E+02 -0.39985860768E+02  0.80054187591E+02  0.00000000000E+00 0.  1.
         21    1    1    2  505  504 -0.62778442631E+02  0.55702199885E+01 -0.11642835589E+02  0.64091464568E+02  0.00000000000E+00 0.  1.
          2    1    1    2  501    0  0.89716824938E+02  0.11026994258E+03 -0.43992667795E+03  0.46232461635E+03  0.00000000000E+00 0. -1.
<scales pt_clust_3="138.67709" pt_clust_4="134.58249" pt_clust_5="32.26883" pt_clust_6="14000.00000"></scales>
<clustering>
<clus scale="   32.269">  4  5 -1 -1</clus>
<clus scale="  134.582">  1  4  2 -1</clus>
<clus scale="  138.677">  1  3  2 -1</clus>
<clus scale="  134.582">  1  3  2 -1</clus>
</clustering>
</event>
<event>
 6    0  0.6851428E+002  0.7461790E+02  0.7546771E-02  0.1345058E+00
          2   -1    0    0  504    0 -0.00000000000E+00  0.00000000000E+00  0.20658455318E+03  0.20658455318E+03  0.00000000000E+00 0. -1.
         21   -1    0    0  505  502  0.00000000000E+00 -0.00000000000E+00 -0.69999751702E+03  0.69999751702E+03  0.00000000000E+00 0. -1.
         21    1    1    2  503  501 -0.18283799935E+02  0.74925872736E+02 -0.18404044174E+03  0.19954715718E+03  0.00000000000E+00 0. -1.
         21    1    1    2  504  502  0.82462365953E+02  0.30412559436E+02 -0.43686392442E+03  0.44561760965E+03  0.00000000000E+00 0. -1.
         21    1    1    2  505  503 -0.24147541993E+02 -0.41416878086E+02 -0.49570262096E+02  0.68961383825E+02  0.00000000000E+00 0. -1.
          2    1    1    2  501    0 -0.40031024025E+02 -0.63921554086E+02  0.17706166441E+03  0.19245591954E+03  0.00000000000E+00 0. -1.
<scales pt_clust_3="74.61790" pt_clust_4="65.86027" pt_clust_5="47.94227" pt_clust_6="14000.00000"></scales>
<clustering>
<clus scale="   47.942">  2  5  1 -1</clus>
<clus scale="   65.860">  2  4  1 -1</clus>
<clus scale="   74.618">  2  3  1 -1</clus>
<clus scale="   47.942">  2  3  1 -1</clus>
</clustering>
</event>
<event>
 6    0  0.6851428E+002  0.1033896E+03  0.7546771E-02  0.1273325E+00
         21   -1    0    0  503  502  0.00000000000E+00  0.00000000000E+00  0.13904490432E+03  0.13904490432E+03  0.00000000000E+00 0.  1.
          2   -1    0    0  505    0 -0.00000000000E+00 -0.00000000000E+00 -0.69578346649E+03  0.69578346649E+03  0.00000000000E+00 0. -1.
         21    1    1    2  503  501  0.41427336200E+02  0.23631656413E+02  0.66219994207E+02  0.81607395512E+02  0.00000000000E+00 0.  1.
         21    1    1    2  504  502 -0.16967811861E+02 -0.35918739010E+02  0.10570774695E+02  0.41107222346E+02  0.00000000000E+00 0.  1.
         21    1    1    2  505  504 -0.84343678725E+02 -0.51587911234E+02 -0.31522364320E+02  0.10377296458E+03  0.00000000000E+00 0.  1.
          2    1    1    2  501    0  0.59884154386E+02  0.63874993831E+02 -0.60200696675E+03  0.60834078837E+03  0.00000000000E+00 0. -1.
<scales pt_clust_3="47.69360" pt_clust_4="32.50625" pt_clust_5="32.50625" pt_clust_6="89.77500"></scales>
<clustering>
<clus scale="   32.506">  4  5 -1 -1</clus>
<clus scale="   47.694">  1  3  2 -1</clus>
<clus scale="   89.775">  2  6  1 -1</clus>
<clus scale="   47.694">  1  3  2 -1</clus>
</clustering>
</event>
<event>
 6    0  0.6851428E+002  0.7404179E+02  0.7546771E-02  0.1346864E+00
         21   -1    0    0  503  502  0.00000000000E+00  0.00000000000E+00  0.27079222194E+02  0.27079222194E+02  0.00000000000E+00 0. -1.
          2   -1    0    0  505    0 -0.00000000000E+00 -0.00000000000E+00 -0.24861845225E+04  0.24861845225E+04  0.00000000000E+00 0. -1.
         21    1    1    2  503  501  0.94419437415E+02  0.56526008050E+02 -0.17781988806E+03  0.20911750844E+03  0.00000000000E+00 0. -1.
         21    1    1    2  504  502 -0.23432170900E+02 -0.41683143667E+02 -0.10294576209E+03  0.11350938741E+03  0.00000000000E+00 0. -1.
         21    1    1    2  505  504 -0.62423648886E+02  0.32529844614E+02 -0.20571459347E+03  0.21742446205E+03  0.00000000000E+00 0. -1.
          2    1    1    2  501    0 -0.85636176297E+01 -0.47372708997E+02 -0.19726250566E+04  0.19732123868E+04  0.00000000000E+00 0. -1.
<scales pt_clust_3="14000.00000" pt_clust_4="47.81790" pt_clust_5="74.04179" pt_clust_6="48.74975"></scales>
<clustering>
<clus scale="   47.818">  1  4  2 -1</clus>
<clus scale="   48.750">  2  6  1 -1</clus>
<clus scale="   74.042">  2  5  1 -1</clus>
<clus scale="   47.818">  1  3  2 -1</clus>
</clustering>
</event>
<event>
 6    0  0.6851428E+002  0.1728605E+03  0.7546771E-02  0.1174897E+00
          2   -1    0    0  503    0 -0.00000000000E+00  0.00000000000E+00  0.19259898651E+04  0.19259898651E+04  0.00000000000E+00 0. -1.
         21   -1    0    0  505  502  0.00000000000E+00 -0.00000000000E+00 -0.12258015017E+03  0.12258015017E+03  0.00000000000E+00 0.  1.
         21    1    1    2  503  502 -0.21177114895E+02 -0.51419198780E+02  0.42575757288E+02  0.70036414151E+02  0.00000000000E+00 0.  1.
         21    1    1    2  504  501 -0.79931217907E+02  0.13521839032E+02 -0.88327303615E+01  0.81546654453E+02  0.00000000000E+00 0.  1.
         21    1    1    2  505  504 -0.67687199417E+02  0.12592898283E+02 -0.39775554344E+02  0.79512469308E+02  0.00000000000E+00 0.  1.
          2    1    1    2  501    0  0.16879553222E+03  0.25304461465E+02  0.18094422424E+04  0.18174744774E+04  0.00000000000E+00 0. -1.
<scales pt_clust_3="55.60939" pt_clust_4="30.62176" pt_clust_5="30.62176" pt_clust_6="169.63687"></scales>
<clustering>
<clus scale="   30.622">  4  5 -1 -1</clus>
<clus scale="   55.609">  2  3  1 -1</clus>
<clus scale="  169.637">  1  6  2 -1</clus>
<clus scale="   55.609">  2  3  1 -1</clus>
</clustering>
</event>
<event>
 6    0  0.6851428E+002  0.1405235E+03  0.7546771E-02  0.1212626E+00
         21   -1    0    0  503  502  0.00000000000E+00  0.00000000000E+00  0.79881177346E+02  0.79881177346E+02  0.00000000000E+00 0.  1.
          1   -1    0    0  504    0 -0.00000000000E+00 -0.00000000000E+00 -0.12731367762E+04  0.12731367762E+04  0.00000000000E+00 0.  1.
         21    1    1    2  503  501 -0.31272066818E+02 -0.45489866941E+01  0.53475949550E+02  0.62115317139E+02  0.00000000000E+00 0.  1.
         21    1    1    2  504  505  0.12087869496E+03  0.73686390000E+02 -0.75416810786E+03  0.76734013181E+03  0.00000000000E+00 0.  1.
         21    1    1    2  505  502  0.36706328723E+02 -0.10728336168E+02 -0.11249346310E+03  0.11881595434E+03  0.00000000000E+00 0.  1.
          1    1    1    2  501    0 -0.12631295686E+03 -0.58409067138E+02 -0.38006997747E+03  0.40474655029E+03  0.00000000000E+00 0.  1.
<scales pt_clust_3="31.60119" pt_clust_4="140.52350" pt_clust_5="34.18004" pt_clust_6="14000.00000"></scales>
<clustering>
<clus scale="   31.601">  1  3  2 -1</clus>
<clus scale="   34.180">  1  5  2 -1</clus>
<clus scale="  140.524">  2  4  1 -1</clus>
<clus scale="   31.601">  1  3  2 -1</clus>
</clustering>
</event>
<event>
 6    0  0.6851428E+002  0.4185473E+03  0.7546771E-02  0.1037540E+00
         21   -1    0    0  504  502  0.00000000000E+00  0.00000000000E+00  0.40499946169E+03  0.40499946169E+03  0.00000000000E+00 0.  1.
          2   -1    0    0  505    0 -0.00000000000E+00 -0.00000000000E+00 -0.27735710959E+04  0.27735710959E+04  0.00000000000E+00 0.  1.
         21    1    1    2  503  502 -0.29406646614E+03  0.15014310560E+03 -0.13718684678E+04  0.14110425690E+04  0.00000000000E+00 0.  1.
         21    1    1    2  504  501  0.32939976183E+03 -0.27132107709E+03  0.26185840487E+03  0.50068867989E+03  0.00000000000E+00 0.  1.
         21    1    1    2  505  503 -0.28018181892E+01  0.63854065080E+02 -0.34271878148E+03  0.34862781730E+03  0.00000000000E+00 0.  1.
          2    1    1    2  501    0 -0.32531477503E+02  0.57323906401E+02 -0.91584278979E+03  0.91821149137E+03  0.00000000000E+00 0.  1.
<scales pt_clust_3="14000.00000" pt_clust_4="418.54733" pt_clust_5="63.91551" pt_clust_6="88.09680"></scales>
<clustering>
<clus scale="   63.916">  2  5  1 -1</clus>
<clus scale="   88.097">  2  6  1 -1</clus>
<clus scale="  418.547">  1  4  2 -1</clus>
<clus scale="  418.547">  1  3  2 -1</clus>
</clustering>
</event>
<event>
 6    0  0.7475171E+002  0.2076926E+03  0.7546771E-02  0.1143406E+00
         21   -1    0    0  503  502  0.00000000000E+00  0.00000000000E+00  0.45565037437E+03  0.45565037437E+03  0.00000000000E+00 0. -1.
          2   -1    0    0  504    0 -0.00000000000E+00 -0.00000000000E+00 -0.26200815158E+04  0.26200815158E+04  0.00000000000E+00 0. -1.
         21    1    1    2  503  501 -0.66015032696E+02 -0.13121630672E+03  0.33616087295E+03  0.36685124532E+03  0.00000000000E+00 0. -1.
         21    1    1    2  504  505 -0.66524401107E+01 -0.60782104731E+02 -0.26054165124E+02  0.66464567517E+02  0.00000000000E+00 0. -1.
         21    1    1    2  505  502  0.29324228387E+02 -0.11932418619E+02  0.76542108647E+02  0.82831077384E+02  0.00000000000E+00 0. -1.
          2    1    1    2  501    0  0.43343244420E+02  0.20393083006E+03 -0.25510799579E+04  0.25595849999E+04  0.00000000000E+00 0. -1.
<scales pt_clust_3="14000.00000" pt_clust_4="61.63280" pt_clust_5="31.65901" pt_clust_6="207.69264"></scales>
<clustering>
<clus scale="   31.659">  1  5  2 -1</clus>
<clus scale="   61.633">  1  4  2 -1</clus>
<clus scale="  207.693">  2  6  1 -1</clus>
<clus scale="   31.659">  1  3  2 -1</clus>
</clustering>
</event>
<event>
 6    0  0.6851428E+002  0.1536873E+03  0.7546771E-02  0.1196014E+00
         21   -1    0    0  504  502  0.00000000000E+00  0.00000000000E+00  0.47172013019E+03  0.47172013019E+03  0.00000000000E+00 0.  1.
          2   -1    0    0  505    0 -0.00000000000E+00 -0.00000000000E+00 -0.58774070163E+03  0.58774070163E+03  0.00000000000E+00 0. -1.
         21    1    1    2  503  502  0.33519946906E+02 -0.33347153318E+00  0.21197723487E+00  0.33522275851E+02  0.00000000000E+00 0.  1.
         21    1    1    2  504  501  0.37982055792E+02 -0.49596734895E+00  0.35272839680E+03  0.35476781767E+03  0.00000000000E+00 0.  1.
         21    1    1    2  505  503  0.38051607113E+02  0.11652600057E+03  0.46912103200E+02  0.13125158680E+03  0.00000000000E+00 0.  1.
          2    1    1    2  501    0 -0.10955360981E+03 -0.11569656168E+03 -0.51587304867E+03  0.53991915150E+03  0.00000000000E+00 0. -1.
<scales pt_clust_3="33.52161" pt_clust_4="64.05563" pt_clust_5="14000.00000" pt_clust_6="153.68734"></scales>
<clustering>
<clus scale="   33.522">  1  3  2 -1</clus>
<clus scale="   64.056">  1  4  2 -1</clus>
<clus scale="  153.687">  2  6  1 -1</clus>
<clus scale="   33.522">  1  3  2 -1</clus>
</clustering>
</event>
<event>
 6    0  0.6851428E+002  0.7949308E+02  0.7546771E-02  0.1330496E+00
         21   -1    0    0  505  502  0.00000000000E+00  0.00000000000E+00  0.72946900822E+02  0.72946900822E+02  0.00000000000E+00 0.  1.
          2   -1    0    0  503    0 -0.00000000000E+00 -0.00000000000E+00 -0.11363482900E+04  0.11363482900E+04  0.00000000000E+00 0.  1.
         21    1    1    2  503  504  0.59633990017E+01  0.29800783835E+02 -0.33172126200E+03  0.33311055899E+03  0.00000000000E+00 0. -1.
         21    1    1    2  504  502 -0.37287951064E+02 -0.69014339515E+02  0.41062014217E+02  0.88540721506E+02  0.00000000000E+00 0.  1.
         21    1    1    2  505  501  0.51802464566E+02  0.82130082394E+02 -0.38762976585E+03  0.39960690828E+03  0.00000000000E+00 0.  1.
          2    1    1    2  501    0 -0.20477912504E+02 -0.42916526714E+02 -0.38511237553E+03  0.38803700204E+03  0.00000000000E+00 0.  1.
<scales pt_clust_3="30.39159" pt_clust_4="14000.00000" pt_clust_5="79.49308" pt_clust_6="33.57564"></scales>
<clustering>
<clus scale="   30.392">  2  3  1 -1</clus>
<clus scale="   33.576">  2  6  1 -1</clus>
<clus scale="   79.493">  2  5  1 -1</clus>
<clus scale="   79.493">  1  3  2 -1</clus>
</clustering>
</event>
<event>
 6    0  0.6851428E+002  0.1342501E+03  0.7546771E-02  0.1221282E+00
          2   -1    0    0  505    0 -0.00000000000E+00  0.00000000000E+00  0.20341936955E+04  0.20341936955E+04  0.00000000000E+00 0. -1.
         21   -1    0    0  501  502  0.00000000000E+00 -0.00000000000E+00 -0.44844574390E+02  0.44844574390E+02  0.00000000000E+00 0. -1.
         21    1    1    2  503  502  0.34665175493E+02 -0.14003585786E+02 -0.26319759868E+02  0.45722035894E+02  0.00000000000E+00 0. -1.
         21    1    1    2  504  503 -0.58010990770E+01  0.42441710343E+02  0.24485765022E+03  0.24857638745E+03  0.00000000000E+00 0. -1.
         21    1    1    2  505  504 -0.10076461440E+01  0.89378504335E+02  0.10533851199E+04  0.10571706311E+04  0.00000000000E+00 0. -1.
          2    1    1    2  501    0 -0.27856430272E+02 -0.11781662889E+03  0.71742611086E+03  0.72756921546E+03  0.00000000000E+00 0. -1.
<scales pt_clust_3="37.38683" pt_clust_4="31.85993" pt_clust_5="31.85993" pt_clust_6="126.11511"></scales>
<clustering>
<clus scale="   31.860">  4  5 -1 -1</clus>
<clus scale="   37.387">  2  3  1 -1</clus>
<clus scale="  126.115">  2  6  1 -1</clus>
<clus scale="   37.387">  2  3  1 -1</clus>
</clustering>
</event>
<event>
 6    0  0.6851428E+002  0.2670207E+03  0.7546771E-02  0.1102997E+00
          3   -1    0    0  503    0 -0.00000000000E+00  0.00000000000E+00  0.57366593192E+03  0.57366593192E+03  0.00000000000E+00 0. -1.
         21   -1    0    0  505  502  0.00000000000E+00 -0.00000000000E+00 -0.65624876780E+03  0.65624876780E+03  0.00000000000E+00 0.  1.
         21    1    1    2  503  504  0.13117086743E+03  0.33407645164E+02  0.36903219110E+02  0.14029866285E+03  0.00000000000E+00 0.  1.
         21    1    1    2  504  502  0.11313090858E+03  0.58680216556E+02  0.46333813127E+02  0.13560528209E+03  0.00000000000E+00 0.  1.
         21    1    1    2  505  501  0.16604235975E+02 -0.32005756909E+02 -0.51373804709E+03  0.51500179626E+03  0.00000000000E+00 0.  1.
          3    1    1    2  501    0 -0.26090601198E+03 -0.60082104812E+02  0.34791817896E+03  0.43900895852E+03  0.00000000000E+00 0. -1.
<scales pt_clust_3="31.15712" pt_clust_4="31.15712" pt_clust_5="36.05647" pt_clust_6="265.08303"></scales>
<clustering>
<clus scale="   31.157">  3  4 -1 -1</clus>
<clus scale="   36.056">  2  5  1 -1</clus>
<clus scale="  265.083">  1  6  2 -1</clus>
<clus scale="   36.056">  2  3  1 -1</clus>
</clustering>
</event>
<event>
 6    0  0.6851428E+002  0.1143468E+03  0.7546771E-02  0.1252726E+00
         21   -1    0    0  503  502  0.00000000000E+00  0.00000000000E+00  0.47921676887E+03  0.47921676887E+03  0.00000000000E+00 0.  1.
          2   -1    0    0  505    0 -0.00000000000E+00 -0.00000000000E+00 -0.16083940239E+04  0.16083940239E+04  0.00000000000E+00 0. -1.
         21    1    1    2  503  504  0.59503229458E+02 -0.31316807210E+02  0.45256310240E+03  0.45753113379E+03  0.00000000000E+00 0.  1.
         21    1    1    2  504  501 -0.85769439029E+02 -0.39522683770E+01 -0.25913591011E+03  0.27298981117E+03  0.00000000000E+00 0. -1.
         21    1    1    2  505  502 -0.10768788556E+03  0.27769618332E+02 -0.10204050556E+04  0.10264474219E+04  0.00000000000E+00 0. -1.
          2    1    1    2  501    0  0.13395409513E+03  0.74994572543E+01 -0.30219939169E+03  0.33064242589E+03  0.00000000000E+00 0. -1.
<scales pt_clust_3="67.24118" pt_clust_4="69.92145" pt_clust_5="114.34683" pt_clust_6="14000.00000"></scales>
<clustering>
<clus scale="   67.241">  1  3  2 -1</clus>
<clus scale="   69.921">  1  4  2 -1</clus>
<clus scale="  114.347">  2  5  1 -1</clus>
<clus scale="   67.241">  1  3  2 -1</clus>
</clustering>
</event>
<event>
 6    0  0.6851428E+002  0.1059097E+03  0.7546771E-02  0.1268338E+00
          1   -1    0    0  503    0 -0.00000000000E+00  0.00000000000E+00  0.25714183456E+04  0.25714183456E+04  0.00000000000E+00 0.  1.
         21   -1    0    0  504  502  0.00000000000E+00 -0.00000000000E+00 -0.13885320072E+03  0.13885320072E+03  0.00000000000E+00 0.  1.
         21    1    1    2  503  505  0.29502845578E+02  0.20751481014E+02  0.43425672701E+02  0.56452023090E+02  0.00000000000E+00 0. -1.
         21    1    1    2  504  501 -0.10153571554E+03  0.26863312741E+02 -0.91492190374E+02  0.13929091859E+03  0.00000000000E+00 0.  1.
         21    1    1    2  505  502  0.10201577670E+03 -0.55885717272E+02  0.18398645982E+03  0.21767280374E+03  0.00000000000E+00 0.  1.
          1    1    1    2  501    0 -0.29982906736E+02  0.82709235179E+01  0.22966452027E+04  0.22968558009E+04  0.00000000000E+00 0.  1.
<scales pt_clust_3="32.76844" pt_clust_4="105.90968" pt_clust_5="14000.00000" pt_clust_6="31.10278"></scales>
<clustering>
<clus scale="   31.103">  1  6  2 -1</clus>
<clus scale="   32.768">  1  3  2 -1</clus>
<clus scale="  105.910">  2  4  1 -1</clus>
<clus scale="  105.910">  2  3  1 -1</clus>
</clustering>
</event>
<event>
 6    0  0.6851428E+002  0.1000761E+03  0.7546771E-02  0.1280136E+00
          2   -1    0    0  504    0 -0.00000000000E+00  0.00000000000E+00  0.28838559313E+04  0.28838559313E+04  0.00000000000E+00 0. -1.
         21   -1    0    0  505  502  0.00000000000E+00 -0.00000000000E+00 -0.15286028231E+03  0.15286028231E+03  0.00000000000E+00 0. -1.
         21    1    1    2  503  502 -0.28370692977E+02  0.19393926484E+02  0.61837173491E+02  0.70745011342E+02  0.00000000000E+00 0. -1.
         21    1    1    2  504  503  0.81972581667E+02  0.97966303994E+02  0.53976482772E+03  0.55467375106E+03  0.00000000000E+00 0.  1.
         21    1    1    2  505  501 -0.57712479285E+02 -0.65962423887E+02 -0.12700403457E+03  0.15431071391E+03  0.00000000000E+00 0. -1.
          2    1    1    2  501    0  0.41105905960E+01 -0.51397806591E+02  0.22563976824E+04  0.22569867373E+04  0.00000000000E+00 0. -1.
<scales pt_clust_3="34.36598" pt_clust_4="100.07606" pt_clust_5="14000.00000" pt_clust_6="51.51909"></scales>
<clustering>
<clus scale="   34.366">  2  3  1 -1</clus>
<clus scale="   51.519">  1  6  2 -1</clus>
<clus scale="  100.076">  1  4  2 -1</clus>
<clus scale="   34.366">  2  3  1 -1</clus>
</clustering>
</event>
<event>
 6    0  0.6851428E+002  0.1433856E+03  0.7546771E-02  0.1208845E+00
         21   -1    0    0  501  502  0.00000000000E+00  0.00000000000E+00  0.11912567457E+04  0.11912567457E+04  0.00000000000E+00 0.  1.
         -1   -1    0    0    0  501 -0.00000000000E+00 -0.00000000000E+00 -0.25679661207E+02  0.25679661207E+02  0.00000000000E+00 0. -1.
         21    1    1    2  503  504 -0.32471076911E+02  0.61283529916E+02  0.29616223534E+03  0.30417447545E+03  0.00000000000E+00 0.  1.
         21    1    1    2  504  505  0.42717746755E-01  0.75742424638E+02  0.28685202318E+03  0.29668333273E+03  0.00000000000E+00 0.  1.
         21    1    1    2  505  502  0.51843962251E+02  0.28261448725E+01  0.24013007111E+03  0.24567912928E+03  0.00000000000E+00 0.  1.
         -1    1    1    2    0  503 -0.19415603087E+02 -0.13985209943E+03  0.34243275483E+03  0.37039946940E+03  0.00000000000E+00 0. -1.
<scales pt_clust_3="34.45870" pt_clust_4="34.45870" pt_clust_5="51.92094" pt_clust_6="138.78998"></scales>
<clustering>
<clus scale="   34.459">  3  4 -1 -1</clus>
<clus scale="   51.921">  1  5  2 -1</clus>
<clus scale="  138.790">  2  6  1 -1</clus>
<clus scale="   51.921">  1  3  2 -1</clus>
</clustering>
</event>
<event>
 6    0  0.6851428E+002  0.1315291E+03  0.7546771E-02  0.1225204E+00
          2   -1    0    0  503    0 -0.00000000000E+00  0.00000000000E+00  0.19058041215E+04  0.19058041215E+04  0.00000000000E+00 0. -1.
         21   -1    0    0  505  502  0.00000000000E+00 -0.00000000000E+00 -0.34173648887E+02  0.34173648887E+02  0.00000000000E+00 0.  1.
         21    1    1    2  503  504 -0.23402988440E+02 -0.63951469942E+02  0.31416214369E+03  0.32145815109E+03  0.00000000000E+00 0. -1.
         21    1    1    2  504  502  0.27771144743E+02 -0.86819168517E+02  0.32095911828E+03  0.33365185465E+03  0.00000000000E+00 0.  1.
         21    1    1    2  505  501  0.98160329778E+01  0.40014712666E+02 -0.20818954057E+01  0.41253678887E+02  0.00000000000E+00 0.  1.
          2    1    1    2  501    0 -0.14184189282E+02  0.11075592579E+03  0.12385911061E+04  0.12436140858E+04  0.00000000000E+00 0. -1.
<scales pt_clust_3="47.98505" pt_clust_4="47.98505" pt_clust_5="41.20111" pt_clust_6="119.41803"></scales>
<clustering>
<clus scale="   41.201">  2  5  1 -1</clus>
<clus scale="   47.985">  3  4 -1 -1</clus>
<clus scale="  119.418">  1  6  2 -1</clus>
<clus scale="   41.201">  2  3  1 -1</clus>
</clustering>
</event>
<event>
 6    0  0.6851428E+002  0.1409626E+03  0.7546771E-02  0.1212040E+00
          2   -1    0    0  505    0 -0.00000000000E+00  0.00000000000E+00  0.10707105927E+04  0.10707105927E+04  0.00000000000E+00 0.  1.
         21   -1    0    0  501  502  0.00000000000E+00 -0.00000000000E+00 -0.58652681663E+02  0.58652681663E+02  0.00000000000E+00 0. -1.
         21    1    1    2  503  502 -0.11343550250E+03  0.60440034510E+02  0.40869254292E+02  0.13487367032E+03  0.00000000000E+00 0. -1.
         21    1    1    2  504  503  0.51958336998E+02 -0.55729261196E+02  0.25475356961E+03  0.26590374305E+03  0.00000000000E+00 0.  1.
         21    1    1    2  505  504  0.34320257388E+02 -0.57647437093E+02  0.48533070819E+03  0.48994591884E+03  0.00000000000E+00 0.  1.
          2    1    1    2  501    0  0.27156908110E+02  0.52936663779E+02  0.23110437899E+03  0.23863994221E+03  0.00000000000E+00 0.  1.
<scales pt_clust_3="128.78176" pt_clust_4="53.78801" pt_clust_5="53.78801" pt_clust_6="59.49612"></scales>
<clustering>
<clus scale="   53.788">  4  5 -1 -1</clus>
<clus scale="   59.496">  1  6  2 -1</clus>
<clus scale="  128.782">  2  3  1 -1</clus>
<clus scale="  128.782">  2  3  1 -1</clus>
</clustering>
</event>
<event>
 6    0  0.6851428E+002  0.1344816E+03  0.7546771E-02  0.1220953E+00
         21   -1    0    0  503  502  0.00000000000E+00  0.00000000000E+00  0.14492029830E+03  0.14492029830E+03  0.00000000000E+00 0. -1.
          1   -1    0    0  504    0 -0.00000000000E+00 -0.00000000000E+00 -0.21707766705E+03  0.21707766705E+03  0.00000000000E+00 0.  1.
         21    1    1    2  503  501  0.86537804652E+02  0.91774572999E+02  0.53248472537E+02  0.13691882161E+03  0.00000000000E+00 0. -1.
         21    1    1    2  504  505 -0.54185617038E+02 -0.60484866077E+02 -0.41310363299E+02  0.91110077566E+02  0.00000000000E+00 0. -1.
         21    1    1    2  505  502 -0.41722650637E+02  0.34798540643E+01  0.66880436380E+00  0.41872858270E+02  0.00000000000E+00 0. -1.
          1    1    1    2  501    0  0.93704630227E+01 -0.34769560986E+02 -0.84764282348E+02  0.92096207904E+02  0.00000000000E+00 0.  1.
<scales pt_clust_3="120.41817" pt_clust_4="39.48041" pt_clust_5="39.48041" pt_clust_6="36.01011"></scales>
<clustering>
<clus scale="   36.010">  2  6  1 -1</clus>
<clus scale="   39.480">  4  5 -1 -1</clus>
<clus scale="  120.418">  1  3  2 -1</clus>
<clus scale="  120.418">  1  3  2 -1</clus>
</clustering>
</event>
<event>
 6    0  0.6851428E+002  0.9517629E+02  0.7546771E-02  0.1290780E+00
         21   -1    0    0  503  502  0.00000000000E+00  0.00000000000E+00  0.27639483816E+03  0.27639483816E+03  0.00000000000E+00 0.  1.
          3   -1    0    0  505    0 -0.00000000000E+00 -0.00000000000E+00 -0.26284822582E+03  0.26284822582E+03  0.00000000000E+00 0. -1.
         21    1    1    2  503  501 -0.80720231350E+02 -0.22737505537E+02  0.36457479095E+02  0.91443412498E+02  0.00000000000E+00 0. -1.
         21    1    1    2  504  502  0.11827117193E+02  0.30967774657E+02  0.17218755061E+02  0.37354642204E+02  0.00000000000E+00 0.  1.
         21    1    1    2  505  504  0.10087553005E+03 -0.39546900265E+02  0.16670489449E+03  0.19882241254E+03  0.00000000000E+00 0.  1.
          3    1    1    2  501    0 -0.31982415891E+02  0.31316631145E+02 -0.20683451630E+03  0.21162259673E+03  0.00000000000E+00 0. -1.
<scales pt_clust_3="14000.00000" pt_clust_4="33.14942" pt_clust_5="95.17629" pt_clust_6="44.88962"></scales>
<clustering>
<clus scale="   33.149">  1  4  2 -1</clus>
<clus scale="   44.890">  2  6  1 -1</clus>
<clus scale="   95.176">  1  5  2 -1</clus>
<clus scale="   33.149">  1  3  2 -1</clus>
</clustering>
</event>
<event>
 6    0  0.6851428E+002  0.9867929E+02  0.7546771E-02  0.1283098E+00
          2   -1    0    0  504    0 -0.00000000000E+00  0.00000000000E+00  0.63649864250E+03  0.63649864250E+03  0.00000000000E+00 0.  1.
         21   -1    0    0  501  502  0.00000000000E+00 -0.00000000000E+00 -0.49336261710E+03  0.49336261710E+03  0.00000000000E+00 0.  1.
         21    1    1    2  503  505  0.15838409217E+01  0.85027368961E+02 -0.63959809553E+02  0.10640967655E+03  0.00000000000E+00 0.  1.
         21    1    1    2  504  503  0.51680155282E+01 -0.95807990798E+02  0.62431560804E+02  0.11447086647E+03  0.00000000000E+00 0.  1.
         21    1    1    2  505  502  0.28383268524E+02  0.20458765127E+02 -0.38072484646E+03  0.38232915102E+03  0.00000000000E+00 0.  1.
          2    1    1    2  501    0 -0.35135124974E+02 -0.96781432896E+01  0.52538912061E+03  0.52665156557E+03  0.00000000000E+00 0.  1.
<scales pt_clust_3="98.67929" pt_clust_4="14000.00000" pt_clust_5="34.98816" pt_clust_6="36.25865"></scales>
<clustering>
<clus scale="   34.988">  2  5  1 -1</clus>
<clus scale="   36.259">  1  6  2 -1</clus>
<clus scale="   98.679">  2  3  1 -1</clus>
<clus scale="   34.988">  2  3  1 -1</clus>
</clustering>
</event>
<event>
 6    0  0.6851428E+002  0.1230090E+03  0.7546771E-02  0.1238214E+00
         21   -1    0    0  501  502  0.00000000000E+00  0.00000000000E+00  0.73619550722E+03  0.73619550722E+03  0.00000000000E+00 0.  1.
          2   -1    0    0  505    0 -0.00000000000E+00 -0.00000000000E+00 -0.16226419394E+03  0.16226419394E+03  0.00000000000E+00 0.  1.
         21    1    1    2  503  504  0.10880703848E+02  0.59951833434E+02  0.36190837007E+01  0.61038592834E+02  0.00000000000E+00 0.  1.
         21    1    1    2  504  502  0.22801152147E+02 -0.12521394816E+03  0.66233831884E+03  0.67445568717E+03  0.00000000000E+00 0.  1.
         21    1    1    2  505  503 -0.30216314395E+02  0.23745330825E+02  0.20086192539E+02  0.43362674299E+02  0.00000000000E+00 0. -1.
          2    1    1    2  501    0 -0.34655415990E+01  0.41516783903E+02 -0.11211228180E+03  0.11960274685E+03  0.00000000000E+00 0.  1.
<scales pt_clust_3="64.68084" pt_clust_4="123.00897" pt_clust_5="38.43002" pt_clust_6="14000.00000"></scales>
<clustering>
<clus scale="   38.430">  2  5  1 -1</clus>
<clus scale="   64.681">  2  3  1 -1</clus>
<clus scale="  123.009">  1  4  2 -1</clus>
<clus scale="  123.009">  1  3  2 -1</clus>
</clustering>
</event>
<event>
 6    0  0.6851428E+002  0.2213528E+03  0.7546771E-02  0.1132878E+00
         21   -1    0    0  504  502  0.00000000000E+00  0.00000000000E+00  0.15482910100E+03  0.15482910100E+03  0.00000000000E+00 0.  1.
          2   -1    0    0  505    0 -0.00000000000E+00 -0.00000000000E+00 -0.25571364435E+04  0.25571364435E+04  0.00000000000E+00 0. -1.
         21    1    1    2  503  502  0.24904382406E+02 -0.19432747481E+02 -0.36842795507E+02  0.48530933624E+02  0.00000000000E+00 0.  1.
         21    1    1    2  504  501  0.10461021697E+02 -0.21638971961E+03 -0.88943400663E+01  0.21682493632E+03  0.00000000000E+00 0.  1.
         21    1    1    2  505  503  0.30537602844E+02  0.23921741250E+02  0.30438336787E+02  0.49308084918E+02  0.00000000000E+00 0.  1.
          2    1    1    2  501    0 -0.65903006948E+02  0.21190072584E+03 -0.23870085437E+04  0.23973015896E+04  0.00000000000E+00 0. -1.
<scales pt_clust_3="31.58892" pt_clust_4="14000.00000" pt_clust_5="41.64760" pt_clust_6="221.35280"></scales>
<clustering>
<clus scale="   31.589">  1  3  2 -1</clus>
<clus scale="   41.648">  1  5  2 -1</clus>
<clus scale="  221.353">  2  6  1 -1</clus>
<clus scale="   31.589">  1  3  2 -1</clus>
</clustering>
</event>
<event>
 6    0  0.6851428E+002  0.1123648E+03  0.7546771E-02  0.1256252E+00
          2   -1    0    0  504    0 -0.00000000000E+00  0.00000000000E+00  0.42523237383E+04  0.42523237383E+04  0.00000000000E+00 0.  1.
         21   -1    0    0  503  502  0.00000000000E+00 -0.00000000000E+00 -0.21420269539E+02  0.21420269539E+02  0.00000000000E+00 0. -1.
         21    1    1    2  503  501  0.38441031795E+02  0.42219821690E+02  0.25587687272E+03  0.26217017424E+03  0.00000000000E+00 0.  1.
         21    1    1    2  504  505  0.30591553646E+02 -0.65446984541E+02  0.54855382751E+03  0.55329056798E+03  0.00000000000E+00 0. -1.
         21    1    1    2  505  502  0.67205821788E+02  0.20658810893E+02  0.70575824307E+02  0.99621061660E+02  0.00000000000E+00 0. -1.
          2    1    1    2  501    0 -0.13623840723E+03  0.25683519582E+01  0.33558969442E+04  0.33586622039E+04  0.00000000000E+00 0.  1.
<scales pt_clust_3="57.09839" pt_clust_4="69.73161" pt_clust_5="14000.00000" pt_clust_6="112.36484"></scales>
<clustering>
<clus scale="   57.098">  2  3  1 -1</clus>
<clus scale="   69.732">  1  4  2 -1</clus>
<clus scale="  112.365">  1  6  2 -1</clus>
<clus scale="   57.098">  2  3  1 -1</clus>
</clustering>
</event>
<event>
 6    0  0.6851428E+002  0.1161609E+03  0.7546771E-02  0.1249568E+00
         21   -1    0    0  505  502  0.00000000000E+00  0.00000000000E+00  0.69993730724E+02  0.69993730724E+02  0.00000000000E+00 0.  1.
          1   -1    0    0  503    0 -0.00000000000E+00 -0.00000000000E+00 -0.79247026440E+03  0.79247026440E+03  0.00000000000E+00 0.  1.
         21    1    1    2  503  502  0.77144006173E+02  0.55132022009E+01 -0.77938096911E+02  0.10979954479E+03  0.00000000000E+00 0.  1.
         21    1    1    2  504  501 -0.38653444818E+02 -0.14518814780E+02  0.13061954988E+02  0.43307036923E+02  0.00000000000E+00 0.  1.
         21    1    1    2  505  504 -0.85393942724E+02 -0.12854925670E+02 -0.50464435337E+02  0.10002016698E+03  0.00000000000E+00 0.  1.
          1    1    1    2  501    0  0.46903381369E+02  0.21860538250E+02 -0.60713595642E+03  0.60933724643E+03  0.00000000000E+00 0.  1.
<scales pt_clust_3="102.40458" pt_clust_4="37.91577" pt_clust_5="37.91577" pt_clust_6="51.74756"></scales>
<clustering>
<clus scale="   37.916">  4  5 -1 -1</clus>
<clus scale="   51.748">  2  6  1 -1</clus>
<clus scale="  102.405">  2  3  1 -1</clus>
<clus scale="  116.161">  1  3  2 -1</clus>
</clustering>
</event>
<event>
 6    0  0.6851428E+002  0.1216184E+03  0.7546771E-02  0.1240451E+00
         21   -1    0    0  501  502  0.00000000000E+00  0.00000000000E+00  0.19171724768E+03  0.19171724768E+03  0.00000000000E+00 0. -1.
          1   -1    0    0  504    0 -0.00000000000E+00 -0.00000000000E+00 -0.12936600271E+03  0.12936600271E+03  0.00000000000E+00 0. -1.
         21    1    1    2  503  505  0.37452197522E+02 -0.36329673379E+02  0.24095659944E+02  0.57472716094E+02  0.00000000000E+00 0.  1.
         21    1    1    2  504  503 -0.41803117776E+02  0.96770425561E+02 -0.28621857320E+02  0.10923015442E+03  0.00000000000E+00 0.  1.
         21    1    1    2  505  502  0.34892373559E+02 -0.56346322632E+02  0.92852236410E+02  0.11407858525E+03  0.00000000000E+00 0. -1.
          1    1    1    2  501    0 -0.30541453306E+02 -0.40944295492E+01 -0.25974794057E+02  0.40301794621E+02  0.00000000000E+00 0. -1.
<scales pt_clust_3="38.17938" pt_clust_4="113.40445" pt_clust_5="38.17938" pt_clust_6="30.81468"></scales>
<clustering>
<clus scale="   30.815">  2  6  1 -1</clus>
<clus scale="   38.179">  3  5 -1 -1</clus>
<clus scale="  113.404">  2  4  1 -1</clus>
<clus scale="  121.618">  1  3  2 -1</clus>
</clustering>
</event>
<event>
 6    0  0.6851428E+002  0.1476622E+03  0.7546771E-02  0.1203375E+00
         21   -1    0    0  504  502  0.00000000000E+00  0.00000000000E+00  0.38961532460E+02  0.38961532460E+02  0.00000000000E+00 0. -1.
          2   -1    0    0  503    0 -0.00000000000E+00 -0.00000000000E+00 -0.14086824833E+04  0.14086824833E+04  0.00000000000E+00 0.  1.
         21    1    1    2  503  502  0.20053051821E+02 -0.11793609353E+03 -0.32093265497E+03  0.34250374607E+03  0.00000000000E+00 0.  1.
         21    1    1    2  504  505 -0.35738345069E+02  0.82648897557E+02 -0.11195761340E+03  0.14367524761E+03  0.00000000000E+00 0. -1.
         21    1    1    2  505  501  0.81688181850E+01  0.72236662412E+02 -0.99198453589E+02  0.12298454448E+03  0.00000000000E+00 0. -1.
          2    1    1    2  501    0  0.75164750627E+01 -0.36949466439E+02 -0.83763222884E+03  0.83848047757E+03  0.00000000000E+00 0.  1.
<scales pt_clust_3="141.53866" pt_clust_4="37.72995" pt_clust_5="37.72995" pt_clust_6="37.70624"></scales>
<clustering>
<clus scale="   37.706">  2  6  1 -1</clus>
<clus scale="   37.730">  4  5 -1 -1</clus>
<clus scale="  141.539">  2  3  1 -1</clus>
<clus scale="  147.662">  1  3  2 -1</clus>
</clustering>
</event>
<event>
 6    0  0.6851428E+002  0.1027708E+03  0.7546771E-02  0.1274575E+00
         21   -1    0    0  503  502  0.00000000000E+00  0.00000000000E+00  0.29084583921E+03  0.29084583921E+03  0.00000000000E+00 0.  1.
          2   -1    0    0  505    0 -0.00000000000E+00 -0.00000000000E+00 -0.17326754620E+04  0.17326754620E+04  0.00000000000E+00 0.  1.
         21    1    1    2  503  501  0.62436082041E+02 -0.12778068640E+03  0.22124558503E+03  0.26301288381E+03  0.00000000000E+00 0.  1.
         21    1    1    2  504  502 -0.27715880764E+02  0.32917729071E+02  0.19601110713E+02  0.47285837995E+02  0.00000000000E+00 0.  1.
         21    1    1    2  505  504 -0.82468596643E+02  0.10433645996E+02 -0.11160733628E+03  0.13916223594E+03  0.00000000000E+00 0. -1.
          2    1    1    2  501    0  0.47748395367E+02  0.84429311334E+02 -0.15710689823E+04  0.15740603435E+04  0.00000000000E+00 0.  1.
<scales pt_clust_3="14000.00000" pt_clust_4="43.03193" pt_clust_5="84.83328" pt_clust_6="102.77076"></scales>
<clustering>
<clus scale="   43.032">  1  4  2 -1</clus>
<clus scale="   84.833">  2  5  1 -1</clus>
<clus scale="  102.771">  2  6  1 -1</clus>
<clus scale="   43.032">  1  3  2 -1</clus>
</clustering>
</event>
<event>
 6    0  0.6851428E+002  0.9112604E+02  0.7546771E-02  0.1300148E+00
         21   -1    0    0  505  502  0.00000000000E+00  0.00000000000E+00  0.91533500498E+02  0.91533500498E+02  0.00000000000E+00 0. -1.
         -4   -1    0    0    0  501 -0.00000000000E+00 -0.00000000000E+00 -0.44367197638E+03  0.44367197638E+03  0.00000000000E+00 0. -1.
         21    1    1    2  503  501  0.31782669808E+02  0.48374740188E+02 -0.84131250046E+02  0.10211915013E+03  0.00000000000E+00 0. -1.
         21    1    1    2  504  502 -0.47887077313E+02  0.36540210283E+02 -0.45215213617E+02  0.75317824474E+02  0.00000000000E+00 0.  1.
         21    1    1    2  505  503 -0.60704226150E+02 -0.39909594260E+02  0.38151997184E+02  0.82057014786E+02  0.00000000000E+00 0. -1.
         -4    1    1    2    0  504  0.76808633654E+02 -0.45005356210E+02 -0.26094400940E+03  0.27571148749E+03  0.00000000000E+00 0. -1.
<scales pt_clust_3="57.88138" pt_clust_4="61.74015" pt_clust_5="91.12604" pt_clust_6="14000.00000"></scales>
<clustering>
<clus scale="   57.881">  2  3  1 -1</clus>
<clus scale="   61.740">  1  4  2 -1</clus>
<clus scale="   91.126">  1  5  2 -1</clus>
<clus scale="   61.740">  1  3  2 -1</clus>
</clustering>
</event>
<event>
 6    0  0.6851428E+002  0.1403194E+03  0.7546771E-02  0.1212900E+00
         21   -1    0    0  504  502  0.00000000000E+00  0.00000000000E+00  0.65161367129E+02  0.65161367129E+02  0.00000000000E+00 0.  1.
          3   -1    0    0  503    0 -0.00000000000E+00 -0.00000000000E+00 -0.17922212971E+04  0.17922212971E+04  0.00000000000E+00 0. -1.
         21    1    1    2  503  502  0.26510692340E+02  0.19333255088E+02  0.28594337386E+02  0.43522726146E+02  0.00000000000E+00 0.  1.
         21    1    1    2  504  505  0.60322822888E+02  0.19857589071E+01 -0.35133813204E+02  0.69836745556E+02  0.00000000000E+00 0.  1.
         21    1    1    2  505  501  0.37869959017E+02  0.32767270676E+02 -0.60900152408E+02  0.78845775961E+02  0.00000000000E+00 0. -1.
          3    1    1    2  501    0 -0.12470347425E+03 -0.54086284672E+02 -0.16596203017E+04  0.16651774166E+04  0.00000000000E+00 0. -1.
<scales pt_clust_3="32.81145" pt_clust_4="39.78746" pt_clust_5="39.78746" pt_clust_6="132.87273"></scales>
<clustering>
<clus scale="   32.811">  1  3  2 -1</clus>
<clus scale="   39.787">  4  5 -1 -1</clus>
<clus scale="  132.873">  2  6  1 -1</clus>
<clus scale="   32.811">  1  3  2 -1</clus>
</clustering>
</event>
<event>
 6    0  0.6851428E+002  0.7899913E+02  0.7546771E-02  0.1331916E+00
         21   -1    0    0  505  502  0.00000000000E+00  0.00000000000E+00  0.54119659675E+03  0.54119659675E+03  0.00000000000E+00 0.  1.
          1   -1    0    0  503    0 -0.00000000000E+00 -0.00000000000E+00 -0.93207397856E+03  0.93207397856E+03  0.00000000000E+00 0. -1.
         21    1    1    2  503  504 -0.14354827449E+02  0.86456222982E+02  0.16667691271E+03  0.18831338984E+03  0.00000000000E+00 0.  1.
         21    1    1    2  504  502  0.36902341595E+02  0.15463976063E+02  0.76627037766E+02  0.86444319001E+02  0.00000000000E+00 0.  1.
         21    1    1    2  505  501 -0.71569572409E+02 -0.39944201421E+02  0.27446266818E+03  0.28643934636E+03  0.00000000000E+00 0.  1.
          1    1    1    2  501    0  0.49022058264E+02 -0.61975997624E+02 -0.90864400046E+03  0.91207352009E+03  0.00000000000E+00 0. -1.
<scales pt_clust_3="14000.00000" pt_clust_4="40.01147" pt_clust_5="57.76813" pt_clust_6="78.99913"></scales>
<clustering>
<clus scale="   40.011">  1  4  2 -1</clus>
<clus scale="   57.768">  1  5  2 -1</clus>
<clus scale="   78.999">  2  6  1 -1</clus>
<clus scale="   40.011">  1  3  2 -1</clus>
</clustering>
</event>
<event>
 6    0  0.6851428E+002  0.2891687E+03  0.7546771E-02  0.1090784E+00
          2   -1    0    0  503    0 -0.00000000000E+00  0.00000000000E+00  0.98791727836E+03  0.98791727836E+03  0.00000000000E+00 0.  1.
         21   -1    0    0  504  502  0.00000000000E+00 -0.00000000000E+00 -0.36836673658E+03  0.36836673658E+03  0.00000000000E+00 0. -1.
         21    1    1    2  503  505 -0.10864445980E+02 -0.12374748756E+03  0.76507150136E+02  0.14589318314E+03  0.00000000000E+00 0.  1.
         21    1    1    2  504  501 -0.12599840948E+03 -0.26379778394E+03 -0.17507862130E+03  0.34076002353E+03  0.00000000000E+00 0. -1.
         21    1    1    2  505  502  0.78627590045E+02  0.12469785345E+03  0.61077557755E+02  0.15956917194E+03  0.00000000000E+00 0. -1.
          2    1    1    2  501    0  0.58235265413E+02  0.26284741805E+03  0.65704445518E+03  0.71006163633E+03  0.00000000000E+00 0.  1.
<scales pt_clust_3="124.22350" pt_clust_4="14000.00000" pt_clust_5="133.70725" pt_clust_6="289.16872"></scales>
<clustering>
<clus scale="  124.223">  1  3  2 -1</clus>
<clus scale="  133.707">  1  5  2 -1</clus>
<clus scale="  289.169">  1  6  2 -1</clus>
<clus scale="  289.169">  2  3  1 -1</clus>
</clustering>
</event>
<event>
 6    0  0.6851428E+002  0.9594669E+02  0.7546771E-02  0.1289058E+00
         -2   -1    0    0    0  501 -0.00000000000E+00  0.00000000000E+00  0.19720194725E+03  0.19720194725E+03  0.00000000000E+00 0.  1.
         21   -1    0    0  504  502  0.00000000000E+00 -0.00000000000E+00 -0.20054655550E+03  0.20054655550E+03  0.00000000000E+00 0.  1.
         21    1    1    2  503  501 -0.25019516326E+02 -0.35822132175E+02  0.30200592588E+02  0.53115695829E+02  0.00000000000E+00 0.  1.
         21    1    1    2  504  503 -0.64354266390E+02 -0.48796899107E+02 -0.54865822392E+02  0.97636404235E+02  0.00000000000E+00 0.  1.
         21    1    1    2  505  502  0.61509041965E+02  0.11431482563E+03 -0.69657244464E+02  0.14732064794E+03  0.00000000000E+00 0.  1.
         -2    1    1    2    0  505  0.27864740751E+02 -0.29695794349E+02  0.90977866024E+02  0.99675754752E+02  0.00000000000E+00 0.  1.
<scales pt_clust_3="49.86284" pt_clust_4="14000.00000" pt_clust_5="95.94669" pt_clust_6="40.72203"></scales>
<clustering>
<clus scale="   40.722">  1  6  2 -1</clus>
<clus scale="   49.863">  1  3  2 -1</clus>
<clus scale="   95.947">  1  5  2 -1</clus>
<clus scale="   95.947">  2  3  1 -1</clus>
</clustering>
</event>
<event>
 6    0  0.6851428E+002  0.1237803E+03  0.7546771E-02  0.1236988E+00
         21   -1    0    0  504  502  0.00000000000E+00  0.00000000000E+00  0.12145291421E+03  0.12145291421E+03  0.00000000000E+00 0.  1.
          2   -1    0    0  503    0 -0.00000000000E+00 -0.00000000000E+00 -0.68727303587E+03  0.68727303587E+03  0.00000000000E+00 0.  1.
         21    1    1    2  503  505  0.42404332016E+02 -0.66596817981E+02 -0.95706017412E+02  0.12406814784E+03  0.00000000000E+00 0.  1.
         21    1    1    2  504  501 -0.80784542474E+02  0.34098543439E+02  0.64939250698E+02  0.10911443190E+03  0.00000000000E+00 0.  1.
         21    1    1    2  505  502  0.89840819598E+01 -0.77872310339E+02 -0.10780920575E+03  0.13329529358E+03  0.00000000000E+00 0.  1.
          2    1    1    2  501    0  0.29396128498E+02  0.11037058488E+03 -0.42724414919E+03  0.44224807676E+03  0.00000000000E+00 0.  1.
<scales pt_clust_3="36.00141" pt_clust_4="87.68610" pt_clust_5="36.00141" pt_clust_6="118.38989"></scales>
<clustering>
<clus scale="   36.001">  3  5 -1 -1</clus>
<clus scale="   87.686">  1  4  2 -1</clus>
<clus scale="  118.390">  2  6  1 -1</clus>
<clus scale="   87.686">  1  3  2 -1</clus>
</clustering>
</event>
<event>
 6    0  0.6851428E+002  0.7643591E+02  0.7546771E-02  0.1339481E+00
         21   -1    0    0  501  502  0.00000000000E+00  0.00000000000E+00  0.35754946896E+03  0.35754946896E+03  0.00000000000E+00 0. -1.
          1   -1    0    0  505    0 -0.00000000000E+00 -0.00000000000E+00 -0.25589117094E+03  0.25589117094E+03  0.00000000000E+00 0. -1.
         21    1    1    2  503  502  0.23108600716E+02 -0.29557253044E+02  0.86153709648E+02  0.93968613486E+02  0.00000000000E+00 0. -1.
         21    1    1    2  504  503 -0.30159084030E+02  0.71526307840E+02  0.14330203685E+03  0.16297563262E+03  0.00000000000E+00 0. -1.
         21    1    1    2  505  504  0.69514989749E+02  0.38959173300E+01  0.96610625348E+02  0.11908452839E+03  0.00000000000E+00 0. -1.
          1    1    1    2  501    0 -0.62464506435E+02 -0.45864972127E+02 -0.22440807383E+03  0.23741186539E+03  0.00000000000E+00 0. -1.
<scales pt_clust_3="37.51851" pt_clust_4="57.16870" pt_clust_5="76.43591" pt_clust_6="14000.00000"></scales>
<clustering>
<clus scale="   37.519">  1  3  2 -1</clus>
<clus scale="   57.169">  1  4  2 -1</clus>
<clus scale="   76.436">  1  5  2 -1</clus>
<clus scale="   37.519">  1  3  2 -1</clus>
</clustering>
</event>
<event>
 6    0  0.6851428E+002  0.1188759E+03  0.7546771E-02  0.1244963E+00
          1   -1    0    0  505    0 -0.00000000000E+00  0.00000000000E+00  0.48842560380E+03  0.48842560380E+03  0.00000000000E+00 0. -1.
         21   -1    0    0  504  502  0.00000000000E+00 -0.00000000000E+00 -0.61935838318E+02  0.61935838318E+02  0.00000000000E+00 0. -1.
         21    1    1    2  503  502 -0.30843577327E+02  0.42190621605E+02  0.93281490356E+01  0.53088503258E+02  0.00000000000E+00 0. -1.
         21    1    1    2  504  501 -0.16626551869E+02 -0.25115769876E+02 -0.41336013656E+01  0.30402808814E+02  0.00000000000E+00 0. -1.
         21    1    1    2  505  503 -0.35904732555E+02  0.56221061748E+02  0.62938846550E+02  0.91712899905E+02  0.00000000000E+00 0. -1.
          1    1    1    2  501    0  0.83374861751E+02 -0.73295913476E+02  0.35835637126E+03  0.37515723014E+03  0.00000000000E+00 0. -1.
<scales pt_clust_3="35.26353" pt_clust_4="30.12049" pt_clust_5="35.26353" pt_clust_6="111.92298"></scales>
<clustering>
<clus scale="   30.120">  2  4  1 -1</clus>
<clus scale="   35.264">  3  5 -1 -1</clus>
<clus scale="  111.923">  1  6  2 -1</clus>
<clus scale="   30.120">  2  3  1 -1</clus>
</clustering>
</event>
<event>
 6    0  0.6851428E+002  0.1157702E+03  0.7546771E-02  0.1250243E+00
         21   -1    0    0  503  502  0.00000000000E+00  0.00000000000E+00  0.33484635065E+03  0.33484635065E+03  0.00000000000E+00 0. -1.
          2   -1    0    0  504    0 -0.00000000000E+00 -0.00000000000E+00 -0.18053677292E+03  0.18053677292E+03  0.00000000000E+00 0. -1.
         21    1    1    2  503  501 -0.16627950019E+03 -0.25557120098E+02  0.68504279993E+02  0.18164491446E+03  0.00000000000E+00 0. -1.
         21    1    1    2  504  505  0.78825561029E+02 -0.45554307119E+02  0.35772560400E+02  0.97817892260E+02  0.00000000000E+00 0. -1.
         21    1    1    2  505  502  0.26132846432E+02  0.24413723288E+02  0.12402344943E+03  0.12907661119E+03  0.00000000000E+00 0.  1.
          2    1    1    2  501    0  0.61321092726E+02  0.46697703929E+02 -0.73990712096E+02  0.10684370567E+03  0.00000000000E+00 0. -1.
<scales pt_clust_3="14000.00000" pt_clust_4="115.77017" pt_clust_5="35.76249" pt_clust_6="79.88410"></scales>
<clustering>
<clus scale="   35.762">  1  5  2 -1</clus>
<clus scale="   79.884">  2  6  1 -1</clus>
<clus scale="  115.770">  1  4  2 -1</clus>
<clus scale="   35.762">  1  3  2 -1</clus>
</clustering>
</event>
<event>
 6    0  0.6851428E+002  0.1314479E+03  0.7546771E-02  0.1225323E+00
          1   -1    0    0  504    0 -0.00000000000E+00  0.00000000000E+00  0.16168025910E+04  0.16168025910E+04  0.00000000000E+00 0.  1.
         21   -1    0    0  503  502  0.00000000000E+00 -0.00000000000E+00 -0.35479534622E+03  0.35479534622E+03  0.00000000000E+00 0.  1.
         21    1    1    2  503  501 -0.14051162356E+00 -0.50341663077E+02  0.10345949241E+03  0.11505724382E+03  0.00000000000E+00 0. -1.
         21    1    1    2  504  505  0.83959505879E+02  0.77126830336E+00  0.39992710067E+03  0.40864590948E+03  0.00000000000E+00 0.  1.
         21    1    1    2  505  502 -0.11548825239E+03  0.66624334483E+02 -0.33143434489E+03  0.35724650223E+03  0.00000000000E+00 0.  1.
          1    1    1    2  501    0  0.31669258130E+02 -0.17053939709E+02  0.10900549965E+04  0.10906482817E+04  0.00000000000E+00 0.  1.
<scales pt_clust_3="54.26355" pt_clust_4="14000.00000" pt_clust_5="131.44786" pt_clust_6="35.96914"></scales>
<clustering>
<clus scale="   35.969">  1  6  2 -1</clus>
<clus scale="   54.264">  1  3  2 -1</clus>
<clus scale="  131.448">  2  5  1 -1</clus>
<clus scale="  131.448">  2  3  1 -1</clus>
</clustering>
</event>
<event>
 6    0  0.6851428E+002  0.9231115E+02  0.7546771E-02  0.1297349E+00
          1   -1    0    0  503    0 -0.00000000000E+00  0.00000000000E+00  0.64750000285E+03  0.64750000285E+03  0.00000000000E+00 0. -1.
         21   -1    0    0  505  502  0.00000000000E+00 -0.00000000000E+00 -0.37319176205E+03  0.37319176205E+03  0.00000000000E+00 0. -1.
         21    1    1    2  503  502 -0.66559751871E+01 -0.84964232686E+02  0.26011450408E+02  0.89105658596E+02  0.00000000000E+00 0. -1.
         21    1    1    2  504  501 -0.48770505816E+02  0.65025703335E+02 -0.41611692398E+02  0.91315044084E+02  0.00000000000E+00 0. -1.
         21    1    1    2  505  504  0.32682292890E+02 -0.70565703911E+02 -0.26571724760E+03  0.27686333544E+03  0.00000000000E+00 0. -1.
          1    1    1    2  501    0  0.22744188113E+02  0.90504233261E+02  0.55562573039E+03  0.56340772679E+03  0.00000000000E+00 0. -1.
<scales pt_clust_3="14000.00000" pt_clust_4="33.38781" pt_clust_5="77.76664" pt_clust_6="92.31115"></scales>
<clustering>
<clus scale="   77.767">  2  5  1 -1</clus>
<clus scale="   33.388">  2  4  1 -1</clus>
<clus scale="   92.311">  1  6  2 -1</clus>
<clus scale="   77.767">  2  3  1 -1</clus>
</clustering>
</event>
<event>
 6    0  0.6851428E+002  0.1211345E+03  0.7546771E-02  0.1241237E+00
         21   -1    0    0  505  502  0.00000000000E+00  0.00000000000E+00  0.30438367868E+03  0.30438367868E+03  0.00000000000E+00 0. -1.
          3   -1    0    0  503    0 -0.00000000000E+00 -0.00000000000E+00 -0.49601475155E+03  0.49601475155E+03  0.00000000000E+00 0. -1.
         21    1    1    2  503  504 -0.71330416282E+02  0.11844491340E+03  0.46508161889E+02  0.14587746543E+03  0.00000000000E+00 0. -1.
         21    1    1    2  504  502 -0.44992860275E+02 -0.23714000400E+02  0.14931107074E+03  0.15773556078E+03  0.00000000000E+00 0. -1.
         21    1    1    2  505  501  0.11134369640E+03 -0.32246717849E+02 -0.12453943004E+02  0.11658632096E+03  0.00000000000E+00 0. -1.
          3    1    1    2  501    0  0.49795801589E+01 -0.62484195153E+02 -0.37499636250E+03  0.38019908304E+03  0.00000000000E+00 0. -1.
<scales pt_clust_3="121.13452" pt_clust_4="50.85972" pt_clust_5="14000.00000" pt_clust_6="63.03344"></scales>
<clustering>
<clus scale="   50.860">  1  4  2 -1</clus>
<clus scale="   63.033">  2  6  1 -1</clus>
<clus scale="  121.135">  1  3  2 -1</clus>
<clus scale="   50.860">  1  3  2 -1</clus>
</clustering>
</event>
<event>
 6    0  0.6851428E+002  0.1248675E+03  0.7546771E-02  0.1235277E+00
         21   -1    0    0  501  502  0.00000000000E+00  0.00000000000E+00  0.23862189238E+04  0.23862189238E+04  0.00000000000E+00 0. -1.
         -1   -1    0    0    0  501 -0.00000000000E+00 -0.00000000000E+00 -0.38275789784E+03  0.38275789784E+03  0.00000000000E+00 0. -1.
         21    1    1    2  503  505 -0.28822379262E+02  0.14175402983E+03  0.14469248237E+04  0.14541376757E+04  0.00000000000E+00 0. -1.
         21    1    1    2  504  503  0.10578689455E+03 -0.58777534564E+02  0.55095598488E+03  0.56409056267E+03  0.00000000000E+00 0.  1.
         21    1    1    2  505  502 -0.45291412268E+02 -0.23485928542E+02  0.37336750540E+03  0.37683709339E+03  0.00000000000E+00 0.  1.
         -1    1    1    2    0  504 -0.31673103016E+02 -0.59490566723E+02 -0.36778728804E+03  0.37391148983E+03  0.00000000000E+00 0. -1.
<scales pt_clust_3="14000.00000" pt_clust_4="124.86747" pt_clust_5="51.01863" pt_clust_6="67.46067"></scales>
<clustering>
<clus scale="   51.019">  1  5  2 -1</clus>
<clus scale="   67.461">  2  6  1 -1</clus>
<clus scale="  124.867">  2  4  1 -1</clus>
<clus scale="   51.019">  1  3  2 -1</clus>
</clustering>
</event>
<event>
 6    0  0.6851428E+002  0.1599725E+03  0.7546771E-02  0.1188728E+00
          1   -1    0    0  502    0 -0.00000000000E+00  0.00000000000E+00  0.33212835342E+04  0.33212835342E+04  0.00000000000E+00 0.  1.
         21   -1    0    0  504  502  0.00000000000E+00 -0.00000000000E+00 -0.13271311562E+03  0.13271311562E+03  0.00000000000E+00 0.  1.
         21    1    1    2  503  505 -0.16797743400E+03 -0.19060483770E+02  0.19950672606E+03  0.26150077269E+03  0.00000000000E+00 0.  1.
         21    1    1    2  504  503  0.12894886537E+03  0.12107076445E+02 -0.49861840329E+02  0.13878254321E+03  0.00000000000E+00 0.  1.
         21    1    1    2  505  501 -0.16933141990E+02 -0.36913833646E+02  0.52182196352E+02  0.66123702469E+02  0.00000000000E+00 0.  1.
          1    1    1    2  501    0  0.55961710622E+02  0.43867240971E+02  0.29867433364E+04  0.29875896314E+04  0.00000000000E+00 0.  1.
<scales pt_clust_3="40.01556" pt_clust_4="137.57092" pt_clust_5="40.01556" pt_clust_6="71.10589"></scales>
<clustering>
<clus scale="   40.016">  3  5 -1 -1</clus>
<clus scale="   71.106">  1  6  2 -1</clus>
<clus scale="  137.571">  2  4  1 -1</clus>
<clus scale="  137.571">  2  3  1 -1</clus>
</clustering>
</event>
<event>
 6    0  0.6851428E+002  0.7762350E+02  0.7546771E-02  0.1335934E+00
         21   -1    0    0  505  502  0.00000000000E+00  0.00000000000E+00  0.79641528940E+03  0.79641528940E+03  0.00000000000E+00 0. -1.
         -2   -1    0    0    0  501 -0.00000000000E+00 -0.00000000000E+00 -0.79492936061E+03  0.79492936061E+03  0.00000000000E+00 0. -1.
         21    1    1    2  503  502 -0.38637804175E+02 -0.20550348770E+02  0.73182005951E+03  0.73312740792E+03  0.00000000000E+00 0. -1.
         21    1    1    2  504  503  0.71076005477E+02  0.82907161485E+02 -0.10943616625E+02  0.10975043838E+03  0.00000000000E+00 0. -1.
         21    1    1    2  505  501  0.20961532776E+02 -0.29758323455E+02 -0.12017229471E+02  0.38332198937E+02  0.00000000000E+00 0. -1.
         -2    1    1    2    0  504 -0.53399734079E+02 -0.32598489261E+02 -0.70737328462E+03  0.71013460477E+03  0.00000000000E+00 0. -1.
<scales pt_clust_3="43.75912" pt_clust_4="14000.00000" pt_clust_5="36.39978" pt_clust_6="77.62350"></scales>
<clustering>
<clus scale="   36.400">  2  5  1 -1</clus>
<clus scale="   43.759">  1  3  2 -1</clus>
<clus scale="   77.624">  2  6  1 -1</clus>
<clus scale="   43.759">  1  3  2 -1</clus>
</clustering>
</event>
<event>
 6    0  0.6851428E+002  0.9236188E+02  0.7546771E-02  0.1297231E+00
         21   -1    0    0  504  502  0.00000000000E+00  0.00000000000E+00  0.54089666107E+02  0.54089666107E+02  0.00000000000E+00 0. -1.
          2   -1    0    0  505    0 -0.00000000000E+00 -0.00000000000E+00 -0.28891971689E+04  0.28891971689E+04  0.00000000000E+00 0. -1.
         21    1    1    2  503  501  0.59931458636E+02  0.31838290632E+02 -0.25010282296E+03  0.25914644226E+03  0.00000000000E+00 0. -1.
         21    1    1    2  504  503 -0.79117336324E+02 -0.35958470656E+01 -0.16310733713E+02  0.80861134405E+02  0.00000000000E+00 0. -1.
         21    1    1    2  505  502 -0.20056184292E+02 -0.68507533769E+02 -0.58053872296E+02  0.92009699489E+02  0.00000000000E+00 0. -1.
          2    1    1    2  501    0  0.39242061980E+02  0.40265090202E+02 -0.25106400738E+04  0.25112695588E+04  0.00000000000E+00 0. -1.
<scales pt_clust_3="14000.00000" pt_clust_4="92.36188" pt_clust_5="61.75181" pt_clust_6="56.22470"></scales>
<clustering>
<clus scale="   56.225">  2  6  1 -1</clus>
<clus scale="   61.752">  1  5  2 -1</clus>
<clus scale="   92.362">  1  4  2 -1</clus>
<clus scale="   61.752">  1  3  2 -1</clus>
</clustering>
</event>
<event>
 6    0  0.6851428E+002  0.3460532E+03  0.7546771E-02  0.1064247E+00
         21   -1    0    0  504  502  0.00000000000E+00  0.00000000000E+00  0.23332671157E+04  0.23332671157E+04  0.00000000000E+00 0. -1.
         -2   -1    0    0    0  501 -0.00000000000E+00 -0.00000000000E+00 -0.47119632794E+03  0.47119632794E+03  0.00000000000E+00 0.  1.
         21    1    1    2  503  502  0.20959980375E+01  0.31014597468E+02  0.14818371913E+03  0.15140909179E+03  0.00000000000E+00 0. -1.
         21    1    1    2  504  505 -0.30417614774E+02 -0.76451563986E+01  0.13529250642E+04  0.13532885535E+04  0.00000000000E+00 0. -1.
         21    1    1    2  505  501 -0.26219895330E+03 -0.21304837353E+03  0.72316994548E+03  0.79819337922E+03  0.00000000000E+00 0. -1.
         -2    1    1    2    0  503  0.29052057004E+03  0.18967893246E+03 -0.36220794107E+03  0.50157241910E+03  0.00000000000E+00 0.  1.
<scales pt_clust_3="31.08534" pt_clust_4="31.33487" pt_clust_5="14000.00000" pt_clust_6="346.05318"></scales>
<clustering>
<clus scale="   31.085">  1  3  2 -1</clus>
<clus scale="   31.335">  1  4  2 -1</clus>
<clus scale="  346.053">  2  6  1 -1</clus>
<clus scale="   31.085">  1  3  2 -1</clus>
</clustering>
</event>
<event>
 6    0  0.6851428E+002  0.6652547E+02  0.7546771E-02  0.1372323E+00
          2   -1    0    0  503    0 -0.00000000000E+00  0.00000000000E+00  0.18315745114E+03  0.18315745114E+03  0.00000000000E+00 0. -1.
         21   -1    0    0  501  502  0.00000000000E+00 -0.00000000000E+00 -0.15820560268E+03  0.15820560268E+03  0.00000000000E+00 0. -1.
         21    1    1    2  503  504  0.70120962032E+02 -0.20439346617E+02  0.39390489760E+02  0.82983895366E+02  0.00000000000E+00 0. -1.
         21    1    1    2  504  505 -0.38065435915E+02 -0.68269229379E+02  0.11727025858E+02  0.79039156289E+02  0.00000000000E+00 0. -1.
         21    1    1    2  505  502  0.53041840629E+01  0.64799687242E+02 -0.84147080827E+02  0.10633844576E+03  0.00000000000E+00 0. -1.
          2    1    1    2  501    0 -0.37359710180E+02  0.23908888754E+02  0.57981413669E+02  0.73001556403E+02  0.00000000000E+00 0. -1.
<scales pt_clust_3="51.32201" pt_clust_4="66.52547" pt_clust_5="14000.00000" pt_clust_6="44.35519"></scales>
<clustering>
<clus scale="   44.355">  1  6  2 -1</clus>
<clus scale="   51.322">  1  3  2 -1</clus>
<clus scale="   66.525">  1  4  2 -1</clus>
<clus scale="   66.525">  2  3  1 -1</clus>
</clustering>
</event>
<event>
 6    0  0.6851428E+002  0.9819509E+02  0.7546771E-02  0.1284138E+00
         21   -1    0    0  505  502  0.00000000000E+00  0.00000000000E+00  0.49459951803E+02  0.49459951803E+02  0.00000000000E+00 0.  1.
          2   -1    0    0  503    0 -0.00000000000E+00 -0.00000000000E+00 -0.14753861692E+04  0.14753861692E+04  0.00000000000E+00 0.  1.
         21    1    1    2  503  504  0.41179721135E+02  0.19676320706E+02 -0.17926795124E+03  0.18498628427E+03  0.00000000000E+00 0.  1.
         21    1    1    2  504  502  0.67304200852E+02 -0.25463759411E+02 -0.95882072065E+02  0.11988173438E+03  0.00000000000E+00 0.  1.
         21    1    1    2  505  501 -0.16594351736E+03  0.10376533184E+02 -0.17099983072E+03  0.23850757955E+03  0.00000000000E+00 0.  1.
          2    1    1    2  501    0  0.57459595376E+02 -0.45890944791E+01 -0.97977636336E+03  0.98147052278E+03  0.00000000000E+00 0.  1.
<scales pt_clust_3="45.63910" pt_clust_4="74.64290" pt_clust_5="98.19509" pt_clust_6="14000.00000"></scales>
<clustering>
<clus scale="   45.639">  2  3  1 -1</clus>
<clus scale="   74.643">  1  4  2 -1</clus>
<clus scale="   98.195">  1  5  2 -1</clus>
<clus scale="   74.643">  1  3  2 -1</clus>
</clustering>
</event>
<event>
 6    0  0.6851428E+002  0.9188205E+02  0.7546771E-02  0.1298357E+00
         21   -1    0    0  504  502  0.00000000000E+00  0.00000000000E+00  0.10542637159E+03  0.10542637159E+03  0.00000000000E+00 0. -1.
          1   -1    0    0  505    0 -0.00000000000E+00 -0.00000000000E+00 -0.16792926295E+04  0.16792926295E+04  0.00000000000E+00 0.  1.
         21    1    1    2  503  502  0.64737358774E+02  0.73478146863E+02 -0.27130459226E+03  0.28843742037E+03  0.00000000000E+00 0. -1.
         21    1    1    2  504  501 -0.37728484063E+02 -0.83594180894E+02  0.69268042205E+02  0.11493253351E+03  0.00000000000E+00 0. -1.
         21    1    1    2  505  503 -0.24871023497E+02  0.40370894713E+02 -0.11825270537E+03  0.12740517759E+03  0.00000000000E+00 0. -1.
          1    1    1    2  501    0 -0.21378512142E+01 -0.30254860681E+02 -0.12535770025E+04  0.12539438696E+04  0.00000000000E+00 0.  1.
<scales pt_clust_3="91.88205" pt_clust_4="14000.00000" pt_clust_5="40.62758" pt_clust_6="30.33030"></scales>
<clustering>
<clus scale="   30.330">  2  6  1 -1</clus>
<clus scale="   40.628">  2  5  1 -1</clus>
<clus scale="   91.882">  2  3  1 -1</clus>
<clus scale="   91.882">  1  3  2 -1</clus>
</clustering>
</event>
<event>
 6    0  0.6851428E+002  0.1232076E+03  0.7546771E-02  0.1237897E+00
         21   -1    0    0  505  502  0.00000000000E+00  0.00000000000E+00  0.12872256412E+03  0.12872256412E+03  0.00000000000E+00 0.  1.
          2   -1    0    0  503    0 -0.00000000000E+00 -0.00000000000E+00 -0.73456497549E+03  0.73456497549E+03  0.00000000000E+00 0.  1.
         21    1    1    2  503  504 -0.40552264174E+02  0.51388946518E+02 -0.10126036452E+03  0.12057765704E+03  0.00000000000E+00 0.  1.
         21    1    1    2  504  502  0.96496049348E+02 -0.50270114361E+02  0.36190057191E+01  0.10886537163E+03  0.00000000000E+00 0.  1.
         21    1    1    2  505  501  0.32870930207E+02  0.11523734701E+02  0.54148441725E+02  0.64384378970E+02  0.00000000000E+00 0.  1.
          2    1    1    2  501    0 -0.88814715380E+02 -0.12642566858E+02 -0.56234949430E+03  0.56946013197E+03  0.00000000000E+00 0.  1.
<scales pt_clust_3="64.05264" pt_clust_4="14000.00000" pt_clust_5="34.83238" pt_clust_6="123.20759"></scales>
<clustering>
<clus scale="   34.832">  1  5  2 -1</clus>
<clus scale="   64.053">  2  3  1 -1</clus>
<clus scale="  123.208">  2  6  1 -1</clus>
<clus scale="   34.832">  1  3  2 -1</clus>
</clustering>
</event>
<event>
 6    0  0.6851428E+002  0.6939904E+02  0.7546771E-02  0.1362149E+00
         21   -1    0    0  504  502  0.00000000000E+00  0.00000000000E+00  0.12066163911E+03  0.12066163911E+03  0.00000000000E+00 0.  1.
         -1   -1    0    0    0  501 -0.00000000000E+00 -0.00000000000E+00 -0.14293678015E+04  0.14293678015E+04  0.00000000000E+00 0. -1.
         21    1    1    2  503  502  0.46599945969E+02  0.42333202104E+02  0.32861398597E+02  0.71017789901E+02  0.00000000000E+00 0.  1.
         21    1    1    2  504  501 -0.37434866292E+02 -0.30895160543E+02 -0.57036238109E+02  0.74893341606E+02  0.00000000000E+00 0.  1.
         21    1    1    2  505  503 -0.71484746287E+02 -0.41514226332E+02  0.29870528336E+02  0.87896236568E+02  0.00000000000E+00 0.  1.
         -1    1    1    2    0  505  0.62319666610E+02  0.30076184771E+02 -0.13144018512E+04  0.13162220726E+04  0.00000000000E+00 0. -1.
<scales pt_clust_3="40.43435" pt_clust_4="48.53741" pt_clust_5="69.39904" pt_clust_6="14000.00000"></scales>
<clustering>
<clus scale="   48.537">  1  4  2 -1</clus>
<clus scale="   40.434">  1  3  2 -1</clus>
<clus scale="   69.399">  1  5  2 -1</clus>
<clus scale="   48.537">  1  3  2 -1</clus>
</clustering>
</event>
<event>
 6    0  0.6851428E+002  0.1299502E+03  0.7546771E-02  0.1227530E+00
         21   -1    0    0  501  502  0.00000000000E+00  0.00000000000E+00  0.57613790138E+03  0.57613790138E+03  0.00000000000E+00 0.  1.
         -1   -1    0    0    0  501 -0.00000000000E+00 -0.00000000000E+00 -0.93735543693E+02  0.93735543693E+02  0.00000000000E+00 0. -1.
         21    1    1    2  503  502 -0.46517818197E+02  0.74347925725E+00  0.23246101688E+03  0.23707084287E+03  0.00000000000E+00 0.  1.
         21    1    1    2  504  503  0.31498068374E+02 -0.25864626467E+02  0.35355409982E+02  0.53954723877E+02  0.00000000000E+00 0.  1.
         21    1    1    2  505  504  0.61826297454E+02 -0.79337249154E+02  0.24119741374E+03  0.26132945214E+03  0.00000000000E+00 0.  1.
         -1    1    1    2    0  505 -0.46806547632E+02  0.10445839636E+03 -0.26611482909E+02  0.11751842619E+03  0.00000000000E+00 0. -1.
<scales pt_clust_3="46.52376" pt_clust_4="35.70274" pt_clust_5="35.70274" pt_clust_6="117.22323"></scales>
<clustering>
<clus scale="   35.703">  4  5 -1 -1</clus>
<clus scale="   46.524">  1  3  2 -1</clus>
<clus scale="  117.223">  2  6  1 -1</clus>
<clus scale="   46.524">  1  3  2 -1</clus>
</clustering>
</event>
<event>
 6    0  0.6851428E+002  0.1197570E+03  0.7546771E-02  0.1243499E+00
         21   -1    0    0  503  502  0.00000000000E+00  0.00000000000E+00  0.19453923948E+04  0.19453923948E+04  0.00000000000E+00 0. -1.
         -3   -1    0    0    0  501 -0.00000000000E+00 -0.00000000000E+00 -0.93890449118E+02  0.93890449118E+02  0.00000000000E+00 0. -1.
         21    1    1    2  503  505  0.32105013899E+02  0.57204276955E+02  0.37466178323E+03  0.38036102986E+03  0.00000000000E+00 0.  1.
         21    1    1    2  504  502 -0.14254460685E+03 -0.33524886717E+02  0.12833907027E+04  0.12917176854E+04  0.00000000000E+00 0. -1.
         21    1    1    2  505  501  0.12452374512E+03  0.16662881725E+02  0.25962898879E+03  0.28842854669E+03  0.00000000000E+00 0. -1.
         -3    1    1    2    0  504 -0.14084152166E+02 -0.40342271963E+02 -0.66179529050E+02  0.78775581970E+02  0.00000000000E+00 0. -1.
<scales pt_clust_3="60.00682" pt_clust_4="14000.00000" pt_clust_5="119.75696" pt_clust_6="42.73011"></scales>
<clustering>
<clus scale="   42.730">  2  6  1 -1</clus>
<clus scale="   60.007">  1  3  2 -1</clus>
<clus scale="  119.757">  2  5  1 -1</clus>
<clus scale="   60.007">  1  3  2 -1</clus>
</clustering>
</event>
<event>
 6    0  0.6851428E+002  0.1286551E+03  0.7546771E-02  0.1229465E+00
         21   -1    0    0  505  502  0.00000000000E+00  0.00000000000E+00  0.22508667891E+03  0.22508667891E+03  0.00000000000E+00 0. -1.
          2   -1    0    0  503    0 -0.00000000000E+00 -0.00000000000E+00 -0.12079152702E+04  0.12079152702E+04  0.00000000000E+00 0. -1.
         21    1    1    2  503  504 -0.76867304031E+01  0.79447785360E+02  0.10241929852E+03  0.12984894737E+03  0.00000000000E+00 0.  1.
         21    1    1    2  504  502  0.22975155210E+02  0.31231823539E+02  0.23286123497E+02  0.45227514922E+02  0.00000000000E+00 0. -1.
         21    1    1    2  505  501 -0.43428056201E+02  0.53643547050E+01  0.64986617830E+02  0.78345598879E+02  0.00000000000E+00 0.  1.
          2    1    1    2  501    0  0.28139631394E+02 -0.11604396360E+03 -0.11735206311E+04  0.11795798879E+04  0.00000000000E+00 0. -1.
<scales pt_clust_3="33.90266" pt_clust_4="33.90266" pt_clust_5="43.75811" pt_clust_6="119.10473"></scales>
<clustering>
<clus scale="   33.903">  3  4 -1 -1</clus>
<clus scale="   43.758">  1  5  2 -1</clus>
<clus scale="  119.105">  2  6  1 -1</clus>
<clus scale="   43.758">  1  3  2 -1</clus>
</clustering>
</event>
<event>
 6    0  0.6851428E+002  0.2142010E+03  0.7546771E-02  0.1138282E+00
         21   -1    0    0  504  502  0.00000000000E+00  0.00000000000E+00  0.97839122740E+02  0.97839122740E+02  0.00000000000E+00 0.  1.
          2   -1    0    0  503    0 -0.00000000000E+00 -0.00000000000E+00 -0.98959483272E+03  0.98959483272E+03  0.00000000000E+00 0.  1.
         21    1    1    2  503  505 -0.55640934118E+02 -0.37577054160E+02 -0.10521008005E+03  0.12480829096E+03  0.00000000000E+00 0.  1.
         21    1    1    2  504  501  0.17236823169E+03  0.52854812632E+02 -0.14965098560E+03  0.23430718300E+03  0.00000000000E+00 0.  1.
         21    1    1    2  505  502 -0.15446071701E+03 -0.23343867246E+02 -0.90445731854E+02  0.18050894617E+03  0.00000000000E+00 0.  1.
          2    1    1    2  501    0  0.37733419440E+02  0.80661087741E+01 -0.54644891248E+03  0.54780953533E+03  0.00000000000E+00 0.  1.
<scales pt_clust_3="53.31749" pt_clust_4="196.97385" pt_clust_5="53.31749" pt_clust_6="38.58592"></scales>
<clustering>
<clus scale="   38.586">  2  6  1 -1</clus>
<clus scale="   53.317">  3  5 -1 -1</clus>
<clus scale="  196.974">  1  4  2 -1</clus>
<clus scale="  196.974">  1  3  2 -1</clus>
</clustering>
</event>
<event>
 6    0  0.6851428E+002  0.1720396E+03  0.7546771E-02  0.1175737E+00
          2   -1    0    0  503    0 -0.00000000000E+00  0.00000000000E+00  0.35997130754E+04  0.35997130754E+04  0.00000000000E+00 0. -1.
         21   -1    0    0  504  502  0.00000000000E+00 -0.00000000000E+00 -0.16115726770E+03  0.16115726770E+03  0.00000000000E+00 0. -1.
         21    1    1    2  503  505 -0.18302876871E+03 -0.10855839297E+02  0.16859199637E+03  0.24907958700E+03  0.00000000000E+00 0. -1.
         21    1    1    2  504  501  0.50857332564E+01  0.32397518455E+02  0.40325700823E+02  0.51977168369E+02  0.00000000000E+00 0. -1.
         21    1    1    2  505  502  0.15219357947E+03  0.50522397150E+02 -0.58565208433E+02  0.17071989306E+03  0.00000000000E+00 0. -1.
          2    1    1    2  501    0  0.25749455975E+02 -0.72064076308E+02  0.32882033189E+04  0.32890936946E+04  0.00000000000E+00 0. -1.
<scales pt_clust_3="172.03962" pt_clust_4="32.79427" pt_clust_5="14000.00000" pt_clust_6="76.44372"></scales>
<clustering>
<clus scale="   32.794">  2  4  1 -1</clus>
<clus scale="   76.444">  1  6  2 -1</clus>
<clus scale="  172.040">  1  3  2 -1</clus>
<clus scale="   32.794">  2  3  1 -1</clus>
</clustering>
</event>
<event>
 6    0  0.6851428E+002  0.9500011E+02  0.7546771E-02  0.1291176E+00
          2   -1    0    0  505    0 -0.00000000000E+00  0.00000000000E+00  0.12343694158E+04  0.12343694158E+04  0.00000000000E+00 0.  1.
         21   -1    0    0  503  502  0.00000000000E+00 -0.00000000000E+00 -0.12491184657E+03  0.12491184657E+03  0.00000000000E+00 0.  1.
         21    1    1    2  503  501  0.37090086382E+02 -0.13402559214E+02  0.24937134990E+02  0.46660087900E+02  0.00000000000E+00 0.  1.
         21    1    1    2  504  502 -0.14995057155E+02  0.43824430562E+02 -0.19226027095E+02  0.50150499210E+02  0.00000000000E+00 0.  1.
         21    1    1    2  505  504 -0.11228458116E+03 -0.15270204658E+01 -0.36668444044E+02  0.11813015596E+03  0.00000000000E+00 0.  1.
          2    1    1    2  501    0  0.90189551935E+02 -0.28894850883E+02  0.11404149054E+04  0.11443405193E+04  0.00000000000E+00 0.  1.
<scales pt_clust_3="39.43733" pt_clust_4="39.92121" pt_clust_5="95.00011" pt_clust_6="14000.00000"></scales>
<clustering>
<clus scale="   39.437">  2  3  1 -1</clus>
<clus scale="   39.921">  2  4  1 -1</clus>
<clus scale="   95.000">  2  5  1 -1</clus>
<clus scale="   39.437">  2  3  1 -1</clus>
</clustering>
</event>
<event>
 6    0  0.6851428E+002  0.1534596E+03  0.7546771E-02  0.1196285E+00
         21   -1    0    0  505  502  0.00000000000E+00  0.00000000000E+00  0.15060061543E+03  0.15060061543E+03  0.00000000000E+00 0. -1.
         -2   -1    0    0    0  501 -0.00000000000E+00 -0.00000000000E+00 -0.11371918290E+04  0.11371918290E+04  0.00000000000E+00 0.  1.
         21    1    1    2  503  504  0.48921564785E+02  0.52270283715E+02  0.62876946667E+01  0.71868192998E+02  0.00000000000E+00 0.  1.
         21    1    1    2  504  502  0.44442950407E+02  0.61399703036E+02  0.76159549130E+02  0.10744941274E+03  0.00000000000E+00 0. -1.
         21    1    1    2  505  501 -0.88107552936E+02 -0.79195892080E+02 -0.16163538913E+03  0.20040191922E+03  0.00000000000E+00 0. -1.
         -2    1    1    2    0  503 -0.52569622556E+01 -0.34474094670E+02 -0.90740306827E+03  0.90807291951E+03  0.00000000000E+00 0.  1.
<scales pt_clust_3="58.38741" pt_clust_4="58.38741" pt_clust_5="140.82045" pt_clust_6="34.87261"></scales>
<clustering>
<clus scale="   34.873">  2  6  1 -1</clus>
<clus scale="   58.387">  3  4 -1 -1</clus>
<clus scale="  140.820">  2  5  1 -1</clus>
<clus scale="  153.460">  1  3  2 -1</clus>
</clustering>
</event>
<event>
 6    0  0.6851428E+002  0.1917376E+03  0.7546771E-02  0.1156903E+00
         21   -1    0    0  503  502  0.00000000000E+00  0.00000000000E+00  0.10744686975E+04  0.10744686975E+04  0.00000000000E+00 0. -1.
          1   -1    0    0  504    0 -0.00000000000E+00 -0.00000000000E+00 -0.95322063386E+03  0.95322063386E+03  0.00000000000E+00 0.  1.
         21    1    1    2  503  501  0.13512055243E+03 -0.17593213503E+03  0.47302076745E+03  0.52245413796E+03  0.00000000000E+00 0. -1.
         21    1    1    2  504  505  0.27205501567E+02  0.52608063072E+02 -0.22264838919E+01  0.59268076114E+02  0.00000000000E+00 0. -1.
         21    1    1    2  505  502 -0.63456642083E+02 -0.12379035429E+01  0.53929205958E+03  0.54301399923E+03  0.00000000000E+00 0. -1.
          1    1    1    2  501    0 -0.98869411917E+02  0.12456197550E+03 -0.88883827949E+03  0.90295311807E+03  0.00000000000E+00 0.  1.
<scales pt_clust_3="14000.00000" pt_clust_4="59.22624" pt_clust_5="63.41186" pt_clust_6="191.73762"></scales>
<clustering>
<clus scale="   59.226">  2  4  1 -1</clus>
<clus scale="   63.412">  1  5  2 -1</clus>
<clus scale="  191.738">  2  6  1 -1</clus>
<clus scale="   63.412">  1  3  2 -1</clus>
</clustering>
</event>
<event>
 6    0  0.6851428E+002  0.7958862E+02  0.7546771E-02  0.1330223E+00
         21   -1    0    0  504  502  0.00000000000E+00  0.00000000000E+00  0.32384295502E+03  0.32384295502E+03  0.00000000000E+00 0.  1.
          4   -1    0    0  505    0 -0.00000000000E+00 -0.00000000000E+00 -0.14674181603E+04  0.14674181603E+04  0.00000000000E+00 0. -1.
         21    1    1    2  503  501  0.26688143629E+02  0.10396207555E+03  0.10955939676E+03  0.15337415552E+03  0.00000000000E+00 0.  1.
         21    1    1    2  504  503 -0.53487613888E+02 -0.24889435264E+02  0.18030834786E+03  0.18971428290E+03  0.00000000000E+00 0.  1.
         21    1    1    2  505  502  0.46839718350E+02 -0.41524823847E+02 -0.13258573945E+03  0.14661940020E+03  0.00000000000E+00 0.  1.
          4    1    1    2  501    0 -0.20040248092E+02 -0.37547816440E+02 -0.13008572104E+04  0.13015532767E+04  0.00000000000E+00 0. -1.
<scales pt_clust_3="14000.00000" pt_clust_4="59.96168" pt_clust_5="79.58862" pt_clust_6="42.56113"></scales>
<clustering>
<clus scale="   42.561">  2  6  1 -1</clus>
<clus scale="   59.962">  1  4  2 -1</clus>
<clus scale="   79.589">  2  5  1 -1</clus>
<clus scale="   59.962">  1  3  2 -1</clus>
</clustering>
</event>
<event>
 6    0  0.6851428E+002  0.1164942E+03  0.7546771E-02  0.1248995E+00
         21   -1    0    0  505  502  0.00000000000E+00  0.00000000000E+00  0.34827416665E+02  0.34827416665E+02  0.00000000000E+00 0. -1.
          2   -1    0    0  503    0 -0.00000000000E+00 -0.00000000000E+00 -0.27982626914E+04  0.27982626914E+04  0.00000000000E+00 0.  1.
         21    1    1    2  503  502  0.24668002122E+02 -0.70205569561E+02 -0.18124301619E+03  0.19592438144E+03  0.00000000000E+00 0.  1.
         21    1    1    2  504  501  0.11292924440E+02  0.10894930497E+03 -0.17568657932E+03  0.20703443035E+03  0.00000000000E+00 0. -1.
         21    1    1    2  505  504 -0.28926989170E+02  0.65249582071E+02 -0.10916463692E+03  0.13042697810E+03  0.00000000000E+00 0. -1.
          2    1    1    2  501    0 -0.70339373910E+01 -0.10399331748E+03 -0.22973410423E+04  0.22997043182E+04  0.00000000000E+00 0.  1.
<scales pt_clust_3="74.41325" pt_clust_4="36.84881" pt_clust_5="36.84881" pt_clust_6="107.17800"></scales>
<clustering>
<clus scale="   36.849">  4  5 -1 -1</clus>
<clus scale="   74.413">  1  3  2 -1</clus>
<clus scale="  107.178">  2  6  1 -1</clus>
<clus scale="   74.413">  1  3  2 -1</clus>
</clustering>
</event>
<event>
 6    0  0.6851428E+002  0.8847609E+02  0.7546771E-02  0.1306585E+00
         21   -1    0    0  505  502  0.00000000000E+00  0.00000000000E+00  0.49711506281E+03  0.49711506281E+03  0.00000000000E+00 0. -1.
         -1   -1    0    0    0  501 -0.00000000000E+00 -0.00000000000E+00 -0.66889436730E+03  0.66889436730E+03  0.00000000000E+00 0. -1.
         21    1    1    2  503  504  0.80596423342E+00  0.75023250428E+02  0.11959136104E+03  0.14117801287E+03  0.00000000000E+00 0. -1.
         21    1    1    2  504  502  0.73832278592E+02 -0.48742968966E+02  0.22324915963E+03  0.24014010423E+03  0.00000000000E+00 0. -1.
         21    1    1    2  505  501 -0.90753920030E+02  0.18991578171E+02  0.11810043378E+03  0.15014881452E+03  0.00000000000E+00 0. -1.
         -1    1    1    2    0  503  0.16115677204E+02 -0.45271859633E+02 -0.63272025893E+03  0.63454249849E+03  0.00000000000E+00 0. -1.
<scales pt_clust_3="61.43501" pt_clust_4="14000.00000" pt_clust_5="88.47609" pt_clust_6="48.05472"></scales>
<clustering>
<clus scale="   48.055">  2  6  1 -1</clus>
<clus scale="   61.435">  2  3  1 -1</clus>
<clus scale="   88.476">  2  5  1 -1</clus>
<clus scale="   88.476">  1  3  2 -1</clus>
</clustering>
</event>
<event>
 6    0  0.6851428E+002  0.9686108E+02  0.7546771E-02  0.1287039E+00
          2   -1    0    0  505    0 -0.00000000000E+00  0.00000000000E+00  0.47613371933E+04  0.47613371933E+04  0.00000000000E+00 0.  1.
         21   -1    0    0  503  502  0.00000000000E+00 -0.00000000000E+00 -0.99575669507E+02  0.99575669507E+02  0.00000000000E+00 0. -1.
         21    1    1    2  503  504 -0.46988969983E+02 -0.23102313009E+02 -0.16857000564E+02  0.55007623421E+02  0.00000000000E+00 0. -1.
         21    1    1    2  504  501 -0.23628505235E+02  0.80325946102E+02 -0.21076096396E+02  0.86340985147E+02  0.00000000000E+00 0. -1.
         21    1    1    2  505  502  0.89192104275E+02  0.40166416147E+02  0.24555687341E+03  0.26432319332E+03  0.00000000000E+00 0.  1.
          2    1    1    2  501    0 -0.18574629057E+02 -0.97390049240E+02  0.44541377473E+04  0.44552410609E+04  0.00000000000E+00 0.  1.
<scales pt_clust_3="52.36106" pt_clust_4="87.77783" pt_clust_5="96.86108" pt_clust_6="14000.00000"></scales>
<clustering>
<clus scale="   52.361">  2  3  1 -1</clus>
<clus scale="   87.778">  2  4  1 -1</clus>
<clus scale="   96.861">  2  5  1 -1</clus>
<clus scale="   52.361">  2  3  1 -1</clus>
</clustering>
</event>
<event>
 6    0  0.6851428E+002  0.1334897E+03  0.7546771E-02  0.1222368E+00
          1   -1    0    0  502    0 -0.00000000000E+00  0.00000000000E+00  0.95990455022E+03  0.95990455022E+03  0.00000000000E+00 0.  1.
         21   -1    0    0  503  502  0.00000000000E+00 -0.00000000000E+00 -0.90643063604E+03  0.90643063604E+03  0.00000000000E+00 0.  1.
         21    1    1    2  503  505  0.41141719313E+01  0.35942466656E+02 -0.13718010490E+03  0.14187025234E+03  0.00000000000E+00 0.  1.
         21    1    1    2  504  501 -0.40788805942E+02 -0.74416683925E+02  0.16790284882E+03  0.18813010440E+03  0.00000000000E+00 0.  1.
         21    1    1    2  505  504  0.43547851197E+02  0.79290603156E+02 -0.75353519066E+03  0.75894578110E+03  0.00000000000E+00 0.  1.
          1    1    1    2  501    0 -0.68732171864E+01 -0.40816385887E+02  0.77628636091E+03  0.77738904842E+03  0.00000000000E+00 0.  1.
<scales pt_clust_3="31.90559" pt_clust_4="123.58822" pt_clust_5="31.90559" pt_clust_6="41.39104"></scales>
<clustering>
<clus scale="   31.906">  3  5 -1 -1</clus>
<clus scale="   41.391">  1  6  2 -1</clus>
<clus scale="  123.588">  1  4  2 -1</clus>
<clus scale="  133.490">  2  3  1 -1</clus>
</clustering>
</event>
<event>
 6    0  0.6851428E+002  0.1856548E+03  0.7546771E-02  0.1162440E+00
         21   -1    0    0  501  502  0.00000000000E+00  0.00000000000E+00  0.21054930477E+04  0.21054930477E+04  0.00000000000E+00 0. -1.
          1   -1    0    0  503    0 -0.00000000000E+00 -0.00000000000E+00 -0.13069884300E+03  0.13069884300E+03  0.00000000000E+00 0. -1.
         21    1    1    2  503  504 -0.60650586086E+02 -0.24028129251E+02  0.18573500160E+03  0.19685866861E+03  0.00000000000E+00 0. -1.
         21    1    1    2  504  505 -0.66680094124E+02 -0.50367957993E+02  0.35166559547E+03  0.36145796047E+03  0.00000000000E+00 0. -1.
         21    1    1    2  505  502 -0.40227178487E+02 -0.90376268205E+01  0.14843271620E+04  0.14848996695E+04  0.00000000000E+00 0. -1.
          1    1    1    2  501    0  0.16755785870E+03  0.83433714065E+02 -0.46933554332E+02  0.19297559218E+03  0.00000000000E+00 0. -1.
<scales pt_clust_3="30.22450" pt_clust_4="30.22450" pt_clust_5="41.22990" pt_clust_6="182.47606"></scales>
<clustering>
<clus scale="   30.224">  3  4 -1 -1</clus>
<clus scale="   41.230">  1  5  2 -1</clus>
<clus scale="  182.476">  2  6  1 -1</clus>
<clus scale="   41.230">  1  3  2 -1</clus>
</clustering>
</event>
<event>
 6    0  0.6851428E+002  0.2660238E+03  0.7546771E-02  0.1103577E+00
          2   -1    0    0  504    0 -0.00000000000E+00  0.00000000000E+00  0.11401057685E+04  0.11401057685E+04  0.00000000000E+00 0.  1.
         21   -1    0    0  503  502  0.00000000000E+00 -0.00000000000E+00 -0.75935735613E+03  0.75935735613E+03  0.00000000000E+00 0. -1.
         21    1    1    2  503  501 -0.15690708814E+03 -0.15999286890E+03 -0.24180892292E+03  0.32968031123E+03  0.00000000000E+00 0. -1.
         21    1    1    2  504  505  0.88339792167E+02  0.65822583631E+02 -0.17666261951E+03  0.20819753247E+03  0.00000000000E+00 0. -1.
         21    1    1    2  505  502  0.19931583727E+03  0.40025096574E+02 -0.23899872631E+03  0.31376615898E+03  0.00000000000E+00 0. -1.
          2    1    1    2  501    0 -0.13074854130E+03  0.54145188697E+02  0.10382186811E+04  0.10478191220E+04  0.00000000000E+00 0.  1.
<scales pt_clust_3="255.04195" pt_clust_4="55.68571" pt_clust_5="55.68571" pt_clust_6="141.51637"></scales>
<clustering>
<clus scale="   55.686">  4  5 -1 -1</clus>
<clus scale="  141.516">  1  6  2 -1</clus>
<clus scale="  255.042">  2  3  1 -1</clus>
<clus scale="  255.042">  2  3  1 -1</clus>
</clustering>
</event>
<event>
 6    0  0.6851428E+002  0.8894923E+02  0.7546771E-02  0.1305416E+00
          2   -1    0    0  504    0 -0.00000000000E+00  0.00000000000E+00  0.35682458782E+04  0.35682458782E+04  0.00000000000E+00 0. -1.
         21   -1    0    0  503  502  0.00000000000E+00 -0.00000000000E+00 -0.12599765279E+03  0.12599765279E+03  0.00000000000E+00 0. -1.
         21    1    1    2  503  501 -0.66843853900E+01 -0.94278615179E+02  0.13646287135E+03  0.16599775163E+03  0.00000000000E+00 0.  1.
         21    1    1    2  504  505  0.31971853303E+02 -0.12719255643E+02  0.17890780912E+03  0.18218667084E+03  0.00000000000E+00 0.  1.
         21    1    1    2  505  502 -0.74843603255E+02  0.46236208313E+02 -0.91380903204E+02  0.12684565967E+03  0.00000000000E+00 0. -1.
          2    1    1    2  501    0  0.49556135342E+02  0.60761662510E+02  0.32182584482E+04  0.32192134489E+04  0.00000000000E+00 0. -1.
<scales pt_clust_3="88.94923" pt_clust_4="34.40899" pt_clust_5="87.79623" pt_clust_6="14000.00000"></scales>
<clustering>
<clus scale="   34.409">  1  4  2 -1</clus>
<clus scale="   87.796">  2  5  1 -1</clus>
<clus scale="   88.949">  2  3  1 -1</clus>
<clus scale="   87.796">  2  3  1 -1</clus>
</clustering>
</event>
<event>
 6    0  0.6851428E+002  0.1154307E+03  0.7546771E-02  0.1250831E+00
         21   -1    0    0  503  502  0.00000000000E+00  0.00000000000E+00  0.17301072208E+03  0.17301072208E+03  0.00000000000E+00 0.  1.
          2   -1    0    0  502    0 -0.00000000000E+00 -0.00000000000E+00 -0.37150217064E+03  0.37150217064E+03  0.00000000000E+00 0. -1.
         21    1    1    2  503  505  0.19813087581E+01 -0.73327266785E+02  0.38304989206E+02  0.82753162095E+02  0.00000000000E+00 0.  1.
         21    1    1    2  504  501  0.57174062201E+02  0.65001035528E+02  0.51684078631E+02  0.10082287435E+03  0.00000000000E+00 0.  1.
         21    1    1    2  505  504  0.46141005126E+02  0.13273927220E+02  0.57857679540E+01  0.48359741611E+02  0.00000000000E+00 0.  1.
          2    1    1    2  501    0 -0.10529637609E+03 -0.49476959626E+01 -0.29426628435E+03  0.31257711467E+03  0.00000000000E+00 0. -1.
<scales pt_clust_3="73.35403" pt_clust_4="34.54527" pt_clust_5="34.54527" pt_clust_6="105.70030"></scales>
<clustering>
<clus scale="   34.545">  4  5 -1 -1</clus>
<clus scale="   73.354">  1  3  2 -1</clus>
<clus scale="  105.700">  2  6  1 -1</clus>
<clus scale="   73.354">  1  3  2 -1</clus>
</clustering>
</event>
<event>
 6    0  0.6851428E+002  0.1077639E+03  0.7546771E-02  0.1264768E+00
         21   -1    0    0  503  502  0.00000000000E+00  0.00000000000E+00  0.59519009647E+03  0.59519009647E+03  0.00000000000E+00 0. -1.
          4   -1    0    0  505    0 -0.00000000000E+00 -0.00000000000E+00 -0.11233067832E+03  0.11233067832E+03  0.00000000000E+00 0. -1.
         21    1    1    2  503  501 -0.73178575245E+02  0.29838568194E+02  0.34069125790E+03  0.34973701154E+03  0.00000000000E+00 0. -1.
         21    1    1    2  504  502  0.22058006095E+02  0.21343720409E+02  0.99612980354E+02  0.10423461944E+03  0.00000000000E+00 0. -1.
         21    1    1    2  505  504 -0.55555443328E+02 -0.22705914567E+02  0.10918379527E+03  0.12459160079E+03  0.00000000000E+00 0. -1.
          4    1    1    2  501    0  0.10667601248E+03 -0.28476374036E+02 -0.66628615370E+02  0.12895754302E+03  0.00000000000E+00 0. -1.
<scales pt_clust_3="107.76385" pt_clust_4="30.69381" pt_clust_5="53.33300" pt_clust_6="14000.00000"></scales>
<clustering>
<clus scale="   30.694">  1  4  2 -1</clus>
<clus scale="   53.333">  1  5  2 -1</clus>
<clus scale="  107.764">  1  3  2 -1</clus>
<clus scale="   30.694">  1  3  2 -1</clus>
</clustering>
</event>
<event>
 6    0  0.6851428E+002  0.1840633E+03  0.7546771E-02  0.1163927E+00
         -1   -1    0    0    0  501 -0.00000000000E+00  0.00000000000E+00  0.14457396769E+03  0.14457396769E+03  0.00000000000E+00 0.  1.
         21   -1    0    0  505  502  0.00000000000E+00 -0.00000000000E+00 -0.85534268929E+03  0.85534268929E+03  0.00000000000E+00 0. -1.
         21    1    1    2  503  502 -0.21306112426E+03  0.30591219020E+02 -0.32954113076E+03  0.39360922526E+03  0.00000000000E+00 0. -1.
         21    1    1    2  504  501  0.33584236200E+02  0.54338541661E+02 -0.84210504487E+02  0.10569762106E+03  0.00000000000E+00 0. -1.
         21    1    1    2  505  504  0.16065553006E+03 -0.47176544628E+02 -0.37570514477E+03  0.41132734106E+03  0.00000000000E+00 0.  1.
         -1    1    1    2    0  503  0.18821357997E+02 -0.37753216054E+02  0.78688058422E+02  0.89282469598E+02  0.00000000000E+00 0.  1.
<scales pt_clust_3="14000.00000" pt_clust_4="60.27581" pt_clust_5="184.06334" pt_clust_6="42.18470"></scales>
<clustering>
<clus scale="   42.185">  1  6  2 -1</clus>
<clus scale="   60.276">  1  4  2 -1</clus>
<clus scale="  184.063">  2  5  1 -1</clus>
<clus scale="  184.063">  2  3  1 -1</clus>
</clustering>
</event>
<event>
 6    0  0.6851428E+002  0.1332590E+03  0.7546771E-02  0.1222699E+00
         21   -1    0    0  503  502  0.00000000000E+00  0.00000000000E+00  0.14712350619E+03  0.14712350619E+03  0.00000000000E+00 0.  1.
          2   -1    0    0  505    0 -0.00000000000E+00 -0.00000000000E+00 -0.80332194126E+03  0.80332194126E+03  0.00000000000E+00 0.  1.
         21    1    1    2  503  504  0.25027241970E+02  0.36293693224E+02  0.66296264658E+01  0.44581912875E+02  0.00000000000E+00 0. -1.
         21    1    1    2  504  501  0.11356322763E+03 -0.86637380072E+02  0.12340352083E+02  0.14336989427E+03  0.00000000000E+00 0.  1.
         21    1    1    2  505  502 -0.32973771935E+02 -0.29654741473E+02  0.24312886893E+02  0.50574596356E+02  0.00000000000E+00 0.  1.
          2    1    1    2  501    0 -0.10561669766E+03  0.79998428320E+02 -0.69948130052E+03  0.71191904395E+03  0.00000000000E+00 0.  1.
<scales pt_clust_3="44.08622" pt_clust_4="14000.00000" pt_clust_5="31.29478" pt_clust_6="133.25898"></scales>
<clustering>
<clus scale="   44.086">  1  3  2 -1</clus>
<clus scale="   31.295">  1  5  2 -1</clus>
<clus scale="  133.259">  2  6  1 -1</clus>
<clus scale="   44.086">  1  3  2 -1</clus>
</clustering>
</event>
<event>
 6    0  0.6851428E+002  0.1687892E+03  0.7546771E-02  0.1179116E+00
         21   -1    0    0  504  502  0.00000000000E+00  0.00000000000E+00  0.26464629643E+02  0.26464629643E+02  0.00000000000E+00 0. -1.
         -2   -1    0    0    0  501 -0.00000000000E+00 -0.00000000000E+00 -0.17250309156E+04  0.17250309156E+04  0.00000000000E+00 0.  1.
         21    1    1    2  503  502  0.30506732081E+02 -0.21260909433E+02 -0.10116590007E+03  0.10778323761E+03  0.00000000000E+00 0. -1.
         21    1    1    2  504  505 -0.14835081590E+02  0.48745910314E+02 -0.80407155043E+02  0.95192195059E+02  0.00000000000E+00 0. -1.
         21    1    1    2  505  501 -0.41687724705E+02  0.12508643642E+03 -0.40791966647E+03  0.42869912207E+03  0.00000000000E+00 0. -1.
         -2    1    1    2    0  503  0.26016074214E+02 -0.15257143730E+03 -0.11090735644E+04  0.11198209905E+04  0.00000000000E+00 0.  1.
<scales pt_clust_3="37.18450" pt_clust_4="31.61575" pt_clust_5="31.61575" pt_clust_6="160.94491"></scales>
<clustering>
<clus scale="   31.616">  4  5 -1 -1</clus>
<clus scale="   37.184">  1  3  2 -1</clus>
<clus scale="  160.945">  2  6  1 -1</clus>
<clus scale="   37.184">  1  3  2 -1</clus>
</clustering>
</event>
<event>
 6    0  0.6851428E+002  0.1316221E+03  0.7546771E-02  0.1225068E+00
         21   -1    0    0  504  502  0.00000000000E+00  0.00000000000E+00  0.22254922719E+03  0.22254922719E+03  0.00000000000E+00 0. -1.
          2   -1    0    0  505    0 -0.00000000000E+00 -0.00000000000E+00 -0.66676606680E+03  0.66676606680E+03  0.00000000000E+00 0. -1.
         21    1    1    2  503  501  0.83303502656E+02  0.47077594870E+02 -0.14240963878E+03  0.17157004025E+03  0.00000000000E+00 0. -1.
         21    1    1    2  504  503  0.46823462927E+02 -0.96173840024E+02  0.28163027239E+02  0.11061193556E+03  0.00000000000E+00 0.  1.
         21    1    1    2  505  502 -0.16162770219E+03  0.89831769363E+02  0.74529693675E+02  0.19936884446E+03  0.00000000000E+00 0. -1.
          2    1    1    2  501    0  0.31500736602E+02 -0.40735524209E+02 -0.40449992175E+03  0.40776447373E+03  0.00000000000E+00 0. -1.
<scales pt_clust_3="104.73207" pt_clust_4="14000.00000" pt_clust_5="131.62214" pt_clust_6="51.49446"></scales>
<clustering>
<clus scale="   51.494">  2  6  1 -1</clus>
<clus scale="  104.732">  2  3  1 -1</clus>
<clus scale="  131.622">  2  5  1 -1</clus>
<clus scale="  131.622">  1  3  2 -1</clus>
</clustering>
</event>
<event>
 6    0  0.6851428E+002  0.1198301E+03  0.7546771E-02  0.1243378E+00
         21   -1    0    0  501  502  0.00000000000E+00  0.00000000000E+00  0.45236714570E+02  0.45236714570E+02  0.00000000000E+00 0. -1.
          2   -1    0    0  505    0 -0.00000000000E+00 -0.00000000000E+00 -0.75375917186E+03  0.75375917186E+03  0.00000000000E+00 0. -1.
         21    1    1    2  503  502 -0.35465483342E+02 -0.63156467480E+00 -0.57908752086E+01  0.35940695851E+02  0.00000000000E+00 0. -1.
         21    1    1    2  504  503  0.55764806665E+02 -0.39801450790E+01 -0.12353190828E+03  0.13559383312E+03  0.00000000000E+00 0. -1.
         21    1    1    2  505  504  0.39420330147E+02 -0.10623731356E+03 -0.23344237422E+03  0.25949117770E+03  0.00000000000E+00 0. -1.
          2    1    1    2  501    0 -0.59719653470E+02  0.11084902331E+03 -0.34575729958E+03  0.36797017976E+03  0.00000000000E+00 0. -1.
<scales pt_clust_3="35.47111" pt_clust_4="48.84627" pt_clust_5="119.83009" pt_clust_6="14000.00000"></scales>
<clustering>
<clus scale="   35.471">  1  3  2 -1</clus>
<clus scale="   48.846">  1  4  2 -1</clus>
<clus scale="  119.830">  1  5  2 -1</clus>
<clus scale="   35.471">  1  3  2 -1</clus>
</clustering>
</event>
<event>
 6    0  0.6851428E+002  0.1468229E+03  0.7546771E-02  0.1204432E+00
          4   -1    0    0  504    0 -0.00000000000E+00  0.00000000000E+00  0.20231278035E+03  0.20231278035E+03  0.00000000000E+00 0. -1.
         21   -1    0    0  505  502  0.00000000000E+00 -0.00000000000E+00 -0.54283745007E+03  0.54283745007E+03  0.00000000000E+00 0. -1.
         21    1    1    2  503  502  0.11252536508E+03 -0.50218766746E+02  0.78204931700E+01  0.12347081612E+03  0.00000000000E+00 0. -1.
         21    1    1    2  504  503  0.70245936390E+02 -0.20915815965E+01  0.20046079205E+02  0.73080172307E+02  0.00000000000E+00 0. -1.
         21    1    1    2  505  501 -0.64922419025E+02  0.42525324259E+02 -0.41447801029E+03  0.42168156791E+03  0.00000000000E+00 0. -1.
          4    1    1    2  501    0 -0.11784888245E+03  0.97850240837E+01  0.46086768193E+02  0.12691767408E+03  0.00000000000E+00 0. -1.
<scales pt_clust_3="31.26580" pt_clust_4="31.26580" pt_clust_5="77.61007" pt_clust_6="140.86501"></scales>
<clustering>
<clus scale="   31.266">  3  4 -1 -1</clus>
<clus scale="   77.610">  2  5  1 -1</clus>
<clus scale="  140.865">  1  6  2 -1</clus>
<clus scale="   77.610">  2  3  1 -1</clus>
</clustering>
</event>
<event>
 6    0  0.6851428E+002  0.9887331E+02  0.7546771E-02  0.1282683E+00
         21   -1    0    0  504  502  0.00000000000E+00  0.00000000000E+00  0.14802958387E+03  0.14802958387E+03  0.00000000000E+00 0. -1.
          1   -1    0    0  503    0 -0.00000000000E+00 -0.00000000000E+00 -0.12508888628E+04  0.12508888628E+04  0.00000000000E+00 0. -1.
         21    1    1    2  503  505  0.38555815817E+02  0.22393289102E+02 -0.13849840594E+03  0.14549851813E+03  0.00000000000E+00 0. -1.
         21    1    1    2  504  501 -0.13031646124E+03  0.10169756519E+02 -0.71455657497E+02  0.14896883904E+03  0.00000000000E+00 0. -1.
         21    1    1    2  505  502  0.34167256453E+02 -0.37523833592E+02  0.98795241926E+02  0.11106727388E+03  0.00000000000E+00 0. -1.
          1    1    1    2  501    0  0.57593388968E+02  0.49607879719E+01 -0.99170045741E+03  0.99338381560E+03  0.00000000000E+00 0. -1.
<scales pt_clust_3="44.58711" pt_clust_4="14000.00000" pt_clust_5="50.80138" pt_clust_6="98.87331"></scales>
<clustering>
<clus scale="   44.587">  2  3  1 -1</clus>
<clus scale="   50.801">  1  5  2 -1</clus>
<clus scale="   98.873">  2  6  1 -1</clus>
<clus scale="   50.801">  1  3  2 -1</clus>
</clustering>
</event>
<event>
 6    0  0.6851428E+002  0.1159993E+03  0.7546771E-02  0.1249847E+00
          4   -1    0    0  503    0 -0.00000000000E+00  0.00000000000E+00  0.33076241904E+03  0.33076241904E+03  0.00000000000E+00 0.  1.
         21   -1    0    0  505  502  0.00000000000E+00 -0.00000000000E+00 -0.47569917917E+03  0.47569917917E+03  0.00000000000E+00 0. -1.
         21    1    1    2  503  504 -0.78466964077E+02 -0.30708929282E+01 -0.10433845037E+02  0.79217169585E+02  0.00000000000E+00 0. -1.
         21    1    1    2  504  502  0.13539346079E+03  0.40419502041E+02 -0.35378286719E+02  0.14565970115E+03  0.00000000000E+00 0. -1.
         21    1    1    2  505  501 -0.11098755867E+03  0.27749602379E+02 -0.32278120185E+03  0.34245581158E+03  0.00000000000E+00 0. -1.
          4    1    1    2  501    0  0.54061061961E+02 -0.65098211492E+02  0.22365657347E+03  0.23912891590E+03  0.00000000000E+00 0.  1.
<scales pt_clust_3="78.52703" pt_clust_4="14000.00000" pt_clust_5="115.99934" pt_clust_6="67.87901"></scales>
<clustering>
<clus scale="   78.527">  1  3  2 -1</clus>
<clus scale="   67.879">  1  6  2 -1</clus>
<clus scale="  115.999">  2  5  1 -1</clus>
<clus scale="  115.999">  2  3  1 -1</clus>
</clustering>
</event>
<event>
 6    0  0.6851428E+002  0.1113961E+03  0.7546771E-02  0.1258006E+00
          1   -1    0    0  505    0 -0.00000000000E+00  0.00000000000E+00  0.17336669288E+04  0.17336669288E+04  0.00000000000E+00 0. -1.
         21   -1    0    0  503  502  0.00000000000E+00 -0.00000000000E+00 -0.72516639095E+02  0.72516639095E+02  0.00000000000E+00 0. -1.
         21    1    1    2  503  504  0.24206463623E+02  0.52975695525E+02  0.18313322424E+01  0.58272900866E+02  0.00000000000E+00 0. -1.
         21    1    1    2  504  501 -0.21054834247E+02  0.40929208613E+02  0.57427075051E+01  0.46384101288E+02  0.00000000000E+00 0. -1.
         21    1    1    2  505  502 -0.62437535209E+01 -0.12375403272E+03  0.13727457496E+03  0.18492796977E+03  0.00000000000E+00 0.  1.
          1    1    1    2  501    0  0.30921241448E+01  0.29849128578E+02  0.15163016750E+04  0.15165985959E+04  0.00000000000E+00 0. -1.
<scales pt_clust_3="40.39540" pt_clust_4="40.39540" pt_clust_5="101.69285" pt_clust_6="30.00886"></scales>
<clustering>
<clus scale="   30.009">  1  6  2 -1</clus>
<clus scale="   40.395">  3  4 -1 -1</clus>
<clus scale="  101.693">  1  5  2 -1</clus>
<clus scale="  111.396">  2  3  1 -1</clus>
</clustering>
</event>
<event>
 6    0  0.6851428E+002  0.1140126E+03  0.7546771E-02  0.1253314E+00
         21   -1    0    0  503  502  0.00000000000E+00  0.00000000000E+00  0.87779367521E+03  0.87779367521E+03  0.00000000000E+00 0.  1.
         -1   -1    0    0    0  501 -0.00000000000E+00 -0.00000000000E+00 -0.35246651311E+03  0.35246651311E+03  0.00000000000E+00 0. -1.
         21    1    1    2  503  505  0.15608111317E+02  0.27426431470E+02  0.76609459646E+02  0.82854279246E+02  0.00000000000E+00 0. -1.
         21    1    1    2  504  502  0.92927443749E+02 -0.53938992186E+02  0.72262223575E+03  0.73056678017E+03  0.00000000000E+00 0.  1.
         21    1    1    2  505  501 -0.13842642251E+03  0.42535354057E+02 -0.40592705322E+01  0.14487100632E+03  0.00000000000E+00 0.  1.
         -1    1    1    2    0  504  0.29890867448E+02 -0.16022793341E+02 -0.26984526277E+03  0.27196812258E+03  0.00000000000E+00 0. -1.
<scales pt_clust_3="31.55665" pt_clust_4="14000.00000" pt_clust_5="114.01265" pt_clust_6="33.91560"></scales>
<clustering>
<clus scale="   31.557">  1  3  2 -1</clus>
<clus scale="   33.916">  2  6  1 -1</clus>
<clus scale="  114.013">  2  5  1 -1</clus>
<clus scale="   31.557">  1  3  2 -1</clus>
</clustering>
</event>
<event>
 6    0  0.6851428E+002  0.9186056E+02  0.7546771E-02  0.1298408E+00
         21   -1    0    0  505  502  0.00000000000E+00  0.00000000000E+00  0.21291386704E+03  0.21291386704E+03  0.00000000000E+00 0. -1.
         -2   -1    0    0    0  501 -0.00000000000E+00 -0.00000000000E+00 -0.94867473684E+03  0.94867473684E+03  0.00000000000E+00 0. -1.
         21    1    1    2  503  501  0.46506010241E+02  0.33664962318E+02 -0.45249220570E+03  0.45611986900E+03  0.00000000000E+00 0.  1.
         21    1    1    2  504  502 -0.37530919148E+02 -0.46230859514E+02 -0.31051747420E+03  0.31617552727E+03  0.00000000000E+00 0. -1.
         21    1    1    2  505  503  0.23728187786E+02  0.72999411135E+02  0.19416467524E+03  0.20878664237E+03  0.00000000000E+00 0. -1.
         -2    1    1    2    0  504 -0.32703278879E+02 -0.60433513939E+02 -0.16691586515E+03  0.18050656524E+03  0.00000000000E+00 0. -1.
<scales pt_clust_3="57.41201" pt_clust_4="45.98688" pt_clust_5="77.44667" pt_clust_6="45.98688"></scales>
<clustering>
<clus scale="   45.987">  4  6 -1 -1</clus>
<clus scale="   57.412">  2  3  1 -1</clus>
<clus scale="   77.447">  1  5  2 -1</clus>
<clus scale="   77.447">  1  3  2 -1</clus>
</clustering>
</event>
<event>
 6    0  0.6851428E+002  0.1675707E+03  0.7546771E-02  0.1180405E+00
          2   -1    0    0  504    0 -0.00000000000E+00  0.00000000000E+00  0.95843061868E+03  0.95843061868E+03  0.00000000000E+00 0. -1.
         21   -1    0    0  505  502  0.00000000000E+00 -0.00000000000E+00 -0.60098491240E+02  0.60098491240E+02  0.00000000000E+00 0.  1.
         21    1    1    2  503  501 -0.40282764677E+02 -0.51423252844E+02  0.90423058913E+02  0.11154990653E+03  0.00000000000E+00 0.  1.
         21    1    1    2  504  502  0.58182488251E+02  0.33959859597E+02  0.11414036043E+03  0.13253865806E+03  0.00000000000E+00 0.  1.
         21    1    1    2  505  503  0.19516090144E+02 -0.11914244016E+03  0.80687507574E+02  0.14521113146E+03  0.00000000000E+00 0.  1.
          2    1    1    2  501    0 -0.37415813718E+02  0.13660583341E+03  0.61308120053E+03  0.62922941387E+03  0.00000000000E+00 0. -1.
<scales pt_clust_3="62.08268" pt_clust_4="67.36820" pt_clust_5="62.08268" pt_clust_6="144.76340"></scales>
<clustering>
<clus scale="   62.083">  3  5 -1 -1</clus>
<clus scale="   67.368">  2  4  1 -1</clus>
<clus scale="  144.763">  1  6  2 -1</clus>
<clus scale="   67.368">  2  3  1 -1</clus>
</clustering>
</event>
<event>
 6    0  0.6851428E+002  0.1414229E+03  0.7546771E-02  0.1211427E+00
         -4   -1    0    0    0  501 -0.00000000000E+00  0.00000000000E+00  0.79206255447E+02  0.79206255447E+02  0.00000000000E+00 0. -1.
         21   -1    0    0  501  502  0.00000000000E+00 -0.00000000000E+00 -0.29723248606E+04  0.29723248606E+04  0.00000000000E+00 0. -1.
         21    1    1    2  503  505 -0.49134853448E+01 -0.60044167607E+02 -0.28956295524E+03  0.29576367162E+03  0.00000000000E+00 0. -1.
         21    1    1    2  504  502 -0.61300489361E+02  0.13008272421E+03 -0.24636482958E+04  0.24678416057E+04  0.00000000000E+00 0. -1.
         21    1    1    2  505  504  0.36846908763E+02 -0.35175208846E+02 -0.20344627646E+03  0.20972691150E+03  0.00000000000E+00 0. -1.
         -4    1    1    2    0  503  0.29367065942E+02 -0.34863347758E+02  0.63538922335E+02  0.78198927297E+02  0.00000000000E+00 0. -1.
<scales pt_clust_3="44.82406" pt_clust_4="132.75646" pt_clust_5="44.82406" pt_clust_6="45.58374"></scales>
<clustering>
<clus scale="   44.824">  3  5 -1 -1</clus>
<clus scale="   45.584">  1  6  2 -1</clus>
<clus scale="  132.756">  2  4  1 -1</clus>
<clus scale="  132.756">  2  3  1 -1</clus>
</clustering>
</event>
<event>
 6    0  0.6851428E+002  0.2296657E+03  0.7546771E-02  0.1126875E+00
         21   -1    0    0  503  502  0.00000000000E+00  0.00000000000E+00  0.71339678681E+03  0.71339678681E+03  0.00000000000E+00 0.  1.
          2   -1    0    0  505    0 -0.00000000000E+00 -0.00000000000E+00 -0.80151176036E+03  0.80151176036E+03  0.00000000000E+00 0.  1.
         21    1    1    2  503  504  0.68039036056E+02 -0.28734055186E+02  0.35088048754E+03  0.35856948126E+03  0.00000000000E+00 0.  1.
         21    1    1    2  504  501  0.14168620330E+03  0.18956419155E+02  0.29531934628E+03  0.32809730617E+03  0.00000000000E+00 0.  1.
         21    1    1    2  505  502 -0.10483449524E+03 -0.29264759313E+02 -0.27019551393E+02  0.11214612649E+03  0.00000000000E+00 0.  1.
          2    1    1    2  501    0 -0.10489074411E+03  0.39042395344E+02 -0.70729525598E+03  0.71609563325E+03  0.00000000000E+00 0.  1.
<scales pt_clust_3="71.36333" pt_clust_4="71.36333" pt_clust_5="108.84254" pt_clust_6="207.09796"></scales>
<clustering>
<clus scale="   71.363">  3  4 -1 -1</clus>
<clus scale="  108.843">  2  5  1 -1</clus>
<clus scale="  207.098">  2  6  1 -1</clus>
<clus scale="  229.666">  1  3  2 -1</clus>
</clustering>
</event>
<event>
 6    0  0.6851428E+002  0.2197600E+03  0.7546771E-02  0.1134062E+00
          2   -1    0    0  503    0 -0.00000000000E+00  0.00000000000E+00  0.48007158260E+03  0.48007158260E+03  0.00000000000E+00 0. -1.
         21   -1    0    0  505  502  0.00000000000E+00 -0.00000000000E+00 -0.77016814760E+03  0.77016814760E+03  0.00000000000E+00 0. -1.
         21    1    1    2  503  504  0.39847303340E+02  0.58384621351E+02 -0.38884971251E+03  0.39522230519E+03  0.00000000000E+00 0. -1.
         21    1    1    2  504  502  0.33603802157E+02  0.11401130909E+03 -0.27213537731E+03  0.29696036386E+03  0.00000000000E+00 0. -1.
         21    1    1    2  505  501  0.56948329341E+02 -0.15835389244E+02 -0.58260455246E+02  0.82994893896E+02  0.00000000000E+00 0.  1.
          2    1    1    2  501    0 -0.13039943484E+03 -0.15656054120E+03  0.42914898007E+03  0.47506216726E+03  0.00000000000E+00 0. -1.
<scales pt_clust_3="71.33966" pt_clust_4="71.33966" pt_clust_5="59.10898" pt_clust_6="202.96379"></scales>
<clustering>
<clus scale="   59.109">  2  5  1 -1</clus>
<clus scale="   71.340">  3  4 -1 -1</clus>
<clus scale="  202.964">  1  6  2 -1</clus>
<clus scale="   59.109">  2  3  1 -1</clus>
</clustering>
</event>
<event>
 6    0  0.6851428E+002  0.1131457E+03  0.7546771E-02  0.1254853E+00
          2   -1    0    0  504    0 -0.00000000000E+00  0.00000000000E+00  0.60479811286E+03  0.60479811286E+03  0.00000000000E+00 0. -1.
         21   -1    0    0  505  502  0.00000000000E+00 -0.00000000000E+00 -0.80170395429E+02  0.80170395429E+02  0.00000000000E+00 0. -1.
         21    1    1    2  503  502  0.58641277528E+02 -0.36053787627E+02  0.78365315928E+02  0.10430626910E+03  0.00000000000E+00 0. -1.
         21    1    1    2  504  503  0.59087369819E+02 -0.61511758496E+02  0.19829241499E+03  0.21585850816E+03  0.00000000000E+00 0. -1.
         21    1    1    2  505  501 -0.37117359459E+02  0.65952444722E+02 -0.23990809183E+02  0.79391323602E+02  0.00000000000E+00 0. -1.
          2    1    1    2  501    0 -0.80611287888E+02  0.31613101401E+02  0.27196079569E+03  0.28541240742E+03  0.00000000000E+00 0. -1.
<scales pt_clust_3="45.69270" pt_clust_4="45.69270" pt_clust_5="75.67974" pt_clust_6="101.06948"></scales>
<clustering>
<clus scale="   45.693">  3  4 -1 -1</clus>
<clus scale="   75.680">  2  5  1 -1</clus>
<clus scale="  101.069">  1  6  2 -1</clus>
<clus scale="   75.680">  2  3  1 -1</clus>
</clustering>
</event>
<event>
 6    0  0.6851428E+002  0.1418383E+03  0.7546771E-02  0.1210877E+00
          2   -1    0    0  503    0 -0.00000000000E+00  0.00000000000E+00  0.21600988305E+04  0.21600988305E+04  0.00000000000E+00 0.  1.
         21   -1    0    0  505  502  0.00000000000E+00 -0.00000000000E+00 -0.12384785761E+02  0.12384785761E+02  0.00000000000E+00 0.  1.
         21    1    1    2  503  504  0.74439885655E+02 -0.48612794757E+02  0.26818172502E+03  0.28253484391E+03  0.00000000000E+00 0.  1.
         21    1    1    2  504  502  0.43550274486E+02 -0.33553029365E+01  0.21548047462E+03  0.21986295597E+03  0.00000000000E+00 0.  1.
         21    1    1    2  505  501 -0.35439789151E+02  0.45273031254E+02  0.56500128849E+03  0.56791908051E+03  0.00000000000E+00 0.  1.
          2    1    1    2  501    0 -0.82550370991E+02  0.66950664389E+01  0.10990505567E+04  0.11021667359E+04  0.00000000000E+00 0.  1.
<scales pt_clust_3="135.92066" pt_clust_4="30.16460" pt_clust_5="49.26188" pt_clust_6="49.26188"></scales>
<clustering>
<clus scale="   30.165">  3  4 -1 -1</clus>
<clus scale="   49.262">  5  6 -1 -1</clus>
<clus scale="  135.921">  2  3  1 -1</clus>
<clus scale="  135.921">  2  3  1 -1</clus>
</clustering>
</event>
<event>
 6    0  0.6851428E+002  0.8098309E+02  0.7546771E-02  0.1326284E+00
          1   -1    0    0  503    0 -0.00000000000E+00  0.00000000000E+00  0.47082081670E+03  0.47082081670E+03  0.00000000000E+00 0.  1.
         21   -1    0    0  505  502  0.00000000000E+00 -0.00000000000E+00 -0.66970196717E+02  0.66970196717E+02  0.00000000000E+00 0. -1.
         21    1    1    2  503  502  0.19663213161E+02  0.68787840226E+02  0.45951295894E+02  0.85028998048E+02  0.00000000000E+00 0.  1.
         21    1    1    2  504  501  0.41229590114E+02 -0.36395181293E+02  0.10193940502E+03  0.11582802173E+03  0.00000000000E+00 0. -1.
         21    1    1    2  505  504 -0.88550335569E+02 -0.52399963502E+02  0.28278619084E+02  0.10670800533E+03  0.00000000000E+00 0. -1.
          1    1    1    2  501    0  0.27657532294E+02  0.20007304569E+02  0.22768129999E+03  0.23022598831E+03  0.00000000000E+00 0.  1.
<scales pt_clust_3="80.98309" pt_clust_4="60.26367" pt_clust_5="14000.00000" pt_clust_6="34.13548"></scales>
<clustering>
<clus scale="   34.135">  1  6  2 -1</clus>
<clus scale="   60.264">  1  4  2 -1</clus>
<clus scale="   80.983">  2  3  1 -1</clus>
<clus scale="   80.983">  2  3  1 -1</clus>
</clustering>
</event>
<event>
 6    0  0.6851428E+002  0.1147498E+03  0.7546771E-02  0.1252018E+00
         21   -1    0    0  504  502  0.00000000000E+00  0.00000000000E+00  0.78511775843E+03  0.78511775843E+03  0.00000000000E+00 0. -1.
         -4   -1    0    0    0  501 -0.00000000000E+00 -0.00000000000E+00 -0.52922726170E+03  0.52922726170E+03  0.00000000000E+00 0.  1.
         21    1    1    2  503  502 -0.49148309746E+01  0.98891265531E+02  0.88769945714E+02  0.13298022870E+03  0.00000000000E+00 0. -1.
         21    1    1    2  504  505  0.42606175257E+02  0.13646072690E+02  0.34697223683E+03  0.34984458635E+03  0.00000000000E+00 0. -1.
         21    1    1    2  505  501 -0.12518642502E+03 -0.10500759055E+03  0.30112098029E+03  0.34259608849E+03  0.00000000000E+00 0. -1.
         -4    1    1    2    0  503  0.87495080735E+02 -0.75297476689E+01 -0.48097266610E+03  0.48892411659E+03  0.00000000000E+00 0.  1.
<scales pt_clust_3="114.74978" pt_clust_4="44.73814" pt_clust_5="14000.00000" pt_clust_6="88.19442"></scales>
<clustering>
<clus scale="   44.738">  1  4  2 -1</clus>
<clus scale="   88.194">  2  6  1 -1</clus>
<clus scale="  114.750">  2  3  1 -1</clus>
<clus scale="   44.738">  1  3  2 -1</clus>
</clustering>
</event>
<event>
 6    0  0.6851428E+002  0.1189206E+03  0.7546771E-02  0.1244888E+00
         21   -1    0    0  504  502  0.00000000000E+00  0.00000000000E+00  0.24836229358E+03  0.24836229358E+03  0.00000000000E+00 0.  1.
          2   -1    0    0  503    0 -0.00000000000E+00 -0.00000000000E+00 -0.54101746394E+03  0.54101746394E+03  0.00000000000E+00 0.  1.
         21    1    1    2  503  502  0.75517558798E+02 -0.11699916474E+02  0.19197712531E+03  0.20662769992E+03  0.00000000000E+00 0.  1.
         21    1    1    2  504  505  0.17998503003E+02  0.81686093236E+02 -0.19065991681E+01  0.83667192250E+02  0.00000000000E+00 0.  1.
         21    1    1    2  505  501 -0.57506488069E+02 -0.42737154691E+02 -0.19317636313E+03  0.20603535579E+03  0.00000000000E+00 0.  1.
          2    1    1    2  501    0 -0.36009573732E+02 -0.27249022071E+02 -0.28954933337E+03  0.29304950957E+03  0.00000000000E+00 0.  1.
<scales pt_clust_3="76.41852" pt_clust_4="108.27656" pt_clust_5="39.04057" pt_clust_6="39.04057"></scales>
<clustering>
<clus scale="   39.041">  5  6 -1 -1</clus>
<clus scale="   76.419">  1  3  2 -1</clus>
<clus scale="  108.277">  1  4  2 -1</clus>
<clus scale="   76.419">  1  3  2 -1</clus>
</clustering>
</event>
<event>
 6    0  0.6851428E+002  0.1257279E+03  0.7546771E-02  0.1233936E+00
         21   -1    0    0  501  502  0.00000000000E+00  0.00000000000E+00  0.76084188670E+03  0.76084188670E+03  0.00000000000E+00 0. -1.
          1   -1    0    0  504    0 -0.00000000000E+00 -0.00000000000E+00 -0.11009802032E+04  0.11009802032E+04  0.00000000000E+00 0. -1.
         21    1    1    2  503  505 -0.56679517111E+02  0.74425414779E+02  0.80430784571E+02  0.12337269200E+03  0.00000000000E+00 0. -1.
         21    1    1    2  504  503  0.73598473707E+02 -0.15398066863E+03  0.15832391897E+03  0.23279442640E+03  0.00000000000E+00 0. -1.
         21    1    1    2  505  502  0.15215808215E+02  0.47259069559E+02  0.46155116513E+03  0.46421376381E+03  0.00000000000E+00 0.  1.
          1    1    1    2  501    0 -0.32134764812E+02  0.32296184294E+02 -0.10404441852E+04  0.10414412077E+04  0.00000000000E+00 0. -1.
<scales pt_clust_3="14000.00000" pt_clust_4="125.72795" pt_clust_5="50.11951" pt_clust_6="45.55970"></scales>
<clustering>
<clus scale="   45.560">  2  6  1 -1</clus>
<clus scale="   50.120">  1  5  2 -1</clus>
<clus scale="  125.728">  2  4  1 -1</clus>
<clus scale="   50.120">  1  3  2 -1</clus>
</clustering>
</event>
<event>
 6    0  0.6851428E+002  0.1134524E+03  0.7546771E-02  0.1254307E+00
         21   -1    0    0  504  502  0.00000000000E+00  0.00000000000E+00  0.10947448468E+03  0.10947448468E+03  0.00000000000E+00 0.  1.
          1   -1    0    0  503    0 -0.00000000000E+00 -0.00000000000E+00 -0.15057310528E+04  0.15057310528E+04  0.00000000000E+00 0. -1.
         21    1    1    2  503  502 -0.60234973704E+02 -0.15143941742E+03 -0.70811872795E+02  0.17769769423E+03  0.00000000000E+00 0.  1.
         21    1    1    2  504  505  0.50275467276E+02  0.75879015860E+02 -0.21131617025E+02  0.93444062924E+02  0.00000000000E+00 0.  1.
         21    1    1    2  505  501  0.82529474828E+01  0.13322774642E+03 -0.21394838014E+03  0.25217385456E+03  0.00000000000E+00 0.  1.
          1    1    1    2  501    0  0.17065589453E+01 -0.57667344858E+02 -0.10903646982E+04  0.10918899258E+04  0.00000000000E+00 0. -1.
<scales pt_clust_3="113.45243" pt_clust_4="84.63610" pt_clust_5="14000.00000" pt_clust_6="57.69259"></scales>
<clustering>
<clus scale="   57.693">  2  6  1 -1</clus>
<clus scale="   84.636">  1  4  2 -1</clus>
<clus scale="  113.452">  1  3  2 -1</clus>
<clus scale="   84.636">  1  3  2 -1</clus>
</clustering>
</event>
<event>
 6    0  0.6851428E+002  0.8912924E+02  0.7546771E-02  0.1304974E+00
         21   -1    0    0  503  502  0.00000000000E+00  0.00000000000E+00  0.49239245080E+03  0.49239245080E+03  0.00000000000E+00 0.  1.
          2   -1    0    0  504    0 -0.00000000000E+00 -0.00000000000E+00 -0.60907670081E+03  0.60907670081E+03  0.00000000000E+00 0.  1.
         21    1    1    2  503  501  0.34870503445E+02 -0.83489122395E+02  0.25787317097E+03  0.27328548786E+03  0.00000000000E+00 0.  1.
         21    1    1    2  504  505  0.51723275880E+02  0.38329967305E+02  0.63675870215E+02  0.90548882428E+02  0.00000000000E+00 0. -1.
         21    1    1    2  505  502  0.42319004228E+01  0.41656607647E+02  0.14317123228E+03  0.14916830661E+03  0.00000000000E+00 0.  1.
          2    1    1    2  501    0 -0.90825679748E+02  0.35025474427E+01 -0.58140452348E+03  0.58846647471E+03  0.00000000000E+00 0.  1.
<scales pt_clust_3="64.09969" pt_clust_4="89.12924" pt_clust_5="41.87102" pt_clust_6="14000.00000"></scales>
<clustering>
<clus scale="   41.871">  1  5  2 -1</clus>
<clus scale="   64.100">  1  3  2 -1</clus>
<clus scale="   89.129">  1  4  2 -1</clus>
<clus scale="   41.871">  1  3  2 -1</clus>
</clustering>
</event>
<event>
 6    0  0.6851428E+002  0.9759087E+02  0.7546771E-02  0.1285445E+00
         21   -1    0    0  504  502  0.00000000000E+00  0.00000000000E+00  0.31640348084E+03  0.31640348084E+03  0.00000000000E+00 0. -1.
         -1   -1    0    0    0  501 -0.00000000000E+00 -0.00000000000E+00 -0.29969869417E+03  0.29969869417E+03  0.00000000000E+00 0. -1.
         21    1    1    2  503  502 -0.16722587062E+01 -0.59854180205E+02  0.18776498755E+02  0.62752499892E+02  0.00000000000E+00 0. -1.
         21    1    1    2  504  501  0.68774705765E+02  0.52556071486E+02  0.17935088356E+03  0.19914527420E+03  0.00000000000E+00 0. -1.
         21    1    1    2  505  503 -0.10348501675E+03  0.93164766929E+02  0.11710077835E+02  0.13973527976E+03  0.00000000000E+00 0. -1.
         -1    1    1    2    0  505  0.36382569688E+02 -0.85866658209E+02 -0.19313267347E+03  0.21446912116E+03  0.00000000000E+00 0. -1.
<scales pt_clust_3="59.87754" pt_clust_4="68.59094" pt_clust_5="97.59087" pt_clust_6="14000.00000"></scales>
<clustering>
<clus scale="   59.878">  1  3  2 -1</clus>
<clus scale="   68.591">  1  4  2 -1</clus>
<clus scale="   97.591">  1  5  2 -1</clus>
<clus scale="   59.878">  1  3  2 -1</clus>
</clustering>
</event>
<event>
 6    0  0.6851428E+002  0.3058107E+03  0.7546771E-02  0.1082371E+00
         21   -1    0    0  504  502  0.00000000000E+00  0.00000000000E+00  0.13673495211E+04  0.13673495211E+04  0.00000000000E+00 0. -1.
          4   -1    0    0  503    0 -0.00000000000E+00 -0.00000000000E+00 -0.49320712613E+03  0.49320712613E+03  0.00000000000E+00 0. -1.
         21    1    1    2  503  505 -0.13256913600E+03  0.28263976986E+02  0.11292235695E+03  0.17642246715E+03  0.00000000000E+00 0.  1.
         21    1    1    2  504  501  0.58040871206E+02  0.72032312061E+02  0.10375991542E+04  0.10417146450E+04  0.00000000000E+00 0. -1.
         21    1    1    2  505  502 -0.17357747352E+03  0.60039785947E+02  0.61428136850E+02  0.19366809548E+03  0.00000000000E+00 0.  1.
          4    1    1    2  501    0  0.24810573831E+03 -0.16033607499E+03 -0.33780725307E+03  0.44875143962E+03  0.00000000000E+00 0. -1.
<scales pt_clust_3="61.02229" pt_clust_4="92.50620" pt_clust_5="61.02229" pt_clust_6="297.44670"></scales>
<clustering>
<clus scale="   61.022">  3  5 -1 -1</clus>
<clus scale="   92.506">  1  4  2 -1</clus>
<clus scale="  297.447">  2  6  1 -1</clus>
<clus scale="   92.506">  1  3  2 -1</clus>
</clustering>
</event>
<event>
 6    0  0.6851428E+002  0.1099766E+03  0.7546771E-02  0.1260613E+00
          2   -1    0    0  503    0 -0.00000000000E+00  0.00000000000E+00  0.13265000697E+04  0.13265000697E+04  0.00000000000E+00 0.  1.
         21   -1    0    0  505  502  0.00000000000E+00 -0.00000000000E+00 -0.49569298171E+03  0.49569298171E+03  0.00000000000E+00 0.  1.
         21    1    1    2  503  502  0.54749006017E+02 -0.48888280678E+02 -0.36068848516E+03  0.36808110652E+03  0.00000000000E+00 0.  1.
         21    1    1    2  504  501  0.33305719275E+01  0.97448889112E+02  0.65229455015E+02  0.11731266129E+03  0.00000000000E+00 0. -1.
         21    1    1    2  505  504 -0.18740851655E+02 -0.64746758097E+02 -0.94067737025E+02  0.11572424704E+03  0.00000000000E+00 0. -1.
          2    1    1    2  501    0 -0.39338726289E+02  0.16186149663E+02  0.12203338552E+04  0.12210750366E+04  0.00000000000E+00 0.  1.
<scales pt_clust_3="109.97661" pt_clust_4="14000.00000" pt_clust_5="67.07239" pt_clust_6="42.53853"></scales>
<clustering>
<clus scale="   42.539">  1  6  2 -1</clus>
<clus scale="   67.072">  2  5  1 -1</clus>
<clus scale="  109.977">  2  3  1 -1</clus>
<clus scale="   67.072">  2  3  1 -1</clus>
</clustering>
</event>
<event>
 6    0  0.1024776E+003  0.9548092E+02  0.7546771E-02  0.1290097E+00
         -1   -1    0    0    0  501 -0.00000000000E+00  0.00000000000E+00  0.61219879605E+03  0.61219879605E+03  0.00000000000E+00 0. -1.
         21   -1    0    0  505  502  0.00000000000E+00 -0.00000000000E+00 -0.10077442406E+04  0.10077442406E+04  0.00000000000E+00 0. -1.
         21    1    1    2  503  502 -0.19761415844E+02 -0.24496841899E+02 -0.56456379569E+03  0.56544043738E+03  0.00000000000E+00 0. -1.
         21    1    1    2  504  503 -0.85743294699E+02 -0.19780620401E+02 -0.36405234207E+03  0.37453610413E+03  0.00000000000E+00 0. -1.
         21    1    1    2  505  501  0.36731572141E+02 -0.22253341981E+02 -0.63010198407E+02  0.76254211193E+02  0.00000000000E+00 0. -1.
         -1    1    1    2    0  504  0.68773138402E+02  0.66530804282E+02  0.59608089160E+03  0.60371228397E+03  0.00000000000E+00 0. -1.
<scales pt_clust_3="31.47394" pt_clust_4="14000.00000" pt_clust_5="42.56846" pt_clust_6="95.48092"></scales>
<clustering>
<clus scale="   31.474">  2  3  1 -1</clus>
<clus scale="   42.568">  2  5  1 -1</clus>
<clus scale="   95.481">  1  6  2 -1</clus>
<clus scale="   31.474">  2  3  1 -1</clus>
</clustering>
</event>
<event>
 6    0  0.6851428E+002  0.1243561E+03  0.7546771E-02  0.1236079E+00
         21   -1    0    0  504  502  0.00000000000E+00  0.00000000000E+00  0.41379406124E+03  0.41379406124E+03  0.00000000000E+00 0. -1.
          2   -1    0    0  503    0 -0.00000000000E+00 -0.00000000000E+00 -0.39044188417E+03  0.39044188417E+03  0.00000000000E+00 0.  1.
         21    1    1    2  503  502 -0.51236711626E+02  0.66402091709E+02 -0.35837004703E+02  0.91207068298E+02  0.00000000000E+00 0.  1.
         21    1    1    2  504  505  0.60460155191E+02 -0.36166034860E+02  0.25638863513E+03  0.26589197932E+03  0.00000000000E+00 0. -1.
         21    1    1    2  505  501  0.35726417027E+02 -0.42766846453E+02  0.11694610775E+03  0.12954447941E+03  0.00000000000E+00 0.  1.
          2    1    1    2  501    0 -0.44949860592E+02  0.12530789605E+02 -0.31414556110E+03  0.31759241838E+03  0.00000000000E+00 0.  1.
<scales pt_clust_3="118.13349" pt_clust_4="34.54735" pt_clust_5="34.54735" pt_clust_6="46.66380"></scales>
<clustering>
<clus scale="   34.547">  4  5 -1 -1</clus>
<clus scale="   46.664">  2  6  1 -1</clus>
<clus scale="  118.133">  2  3  1 -1</clus>
<clus scale="  124.356">  1  3  2 -1</clus>
</clustering>
</event>
<event>
 6    0  0.6851428E+002  0.1121079E+03  0.7546771E-02  0.1256715E+00
         21   -1    0    0  504  502  0.00000000000E+00  0.00000000000E+00  0.16306072214E+03  0.16306072214E+03  0.00000000000E+00 0. -1.
          2   -1    0    0  503    0 -0.00000000000E+00 -0.00000000000E+00 -0.21750394736E+04  0.21750394736E+04  0.00000000000E+00 0.  1.
         21    1    1    2  503  505 -0.26718450139E+02  0.12106621435E+03 -0.27245219947E+02  0.12693780306E+03  0.00000000000E+00 0. -1.
         21    1    1    2  504  501  0.25188185097E+02 -0.77701324018E+02  0.56491811150E+02  0.99313972580E+02  0.00000000000E+00 0. -1.
         21    1    1    2  505  502  0.15015594519E+02  0.52761178895E+02  0.12145367342E+02  0.56184695647E+02  0.00000000000E+00 0. -1.
          2    1    1    2  501    0 -0.13485329477E+02 -0.96126069228E+02 -0.20533707100E+04  0.20556637245E+04  0.00000000000E+00 0.  1.
<scales pt_clust_3="36.14635" pt_clust_4="81.68195" pt_clust_5="36.14635" pt_clust_6="98.05742"></scales>
<clustering>
<clus scale="   36.146">  3  5 -1 -1</clus>
<clus scale="   81.682">  1  4  2 -1</clus>
<clus scale="   98.057">  2  6  1 -1</clus>
<clus scale="   81.682">  1  3  2 -1</clus>
</clustering>
</event>
<event>
 6    0  0.6851428E+002  0.1117034E+03  0.7546771E-02  0.1257448E+00
         21   -1    0    0  505  502  0.00000000000E+00  0.00000000000E+00  0.22781856521E+04  0.22781856521E+04  0.00000000000E+00 0.  1.
          4   -1    0    0  504    0 -0.00000000000E+00 -0.00000000000E+00 -0.10605307236E+03  0.10605307236E+03  0.00000000000E+00 0. -1.
         21    1    1    2  503  501  0.46154031729E+01  0.12508179781E+03  0.42062328384E+03  0.43885157514E+03  0.00000000000E+00 0.  1.
         21    1    1    2  504  502 -0.68389693470E+02 -0.43041417958E+01  0.49711465289E+03  0.50181535840E+03  0.00000000000E+00 0.  1.
         21    1    1    2  505  503  0.91175515845E+02 -0.96373093353E+02  0.13420263691E+04  0.13485679527E+04  0.00000000000E+00 0.  1.
          4    1    1    2  501    0 -0.27401225547E+02 -0.24404562665E+02 -0.87631726117E+02  0.95003838147E+02  0.00000000000E+00 0. -1.
<scales pt_clust_3="111.70338" pt_clust_4="73.22057" pt_clust_5="14000.00000" pt_clust_6="36.69346"></scales>
<clustering>
<clus scale="   36.693">  2  6  1 -1</clus>
<clus scale="   73.221">  1  4  2 -1</clus>
<clus scale="  111.703">  2  3  1 -1</clus>
<clus scale="   73.221">  1  3  2 -1</clus>
</clustering>
</event>
<event>
 6    0  0.6851428E+002  0.6706617E+02  0.7546771E-02  0.1370364E+00
         21   -1    0    0  503  502  0.00000000000E+00  0.00000000000E+00  0.60171475679E+02  0.60171475679E+02  0.00000000000E+00 0. -1.
          2   -1    0    0  504    0 -0.00000000000E+00 -0.00000000000E+00 -0.23041396665E+04  0.23041396665E+04  0.00000000000E+00 0. -1.
         21    1    1    2  503  501 -0.45774252938E+02 -0.77047034758E+02 -0.12951222106E+02  0.90549776096E+02  0.00000000000E+00 0. -1.
         21    1    1    2  504  505  0.65755935828E+02 -0.12267059858E+02 -0.81455299189E+02  0.10540061489E+03  0.00000000000E+00 0. -1.
         21    1    1    2  505  502 -0.33115219484E+02  0.23790484839E+02 -0.37984428660E+02  0.55726311119E+02  0.00000000000E+00 0.  1.
          2    1    1    2  501    0  0.13133536593E+02  0.65523609777E+02 -0.21115772409E+04  0.21126344401E+04  0.00000000000E+00 0. -1.
<scales pt_clust_3="67.06617" pt_clust_4="58.41463" pt_clust_5="40.77505" pt_clust_6="14000.00000"></scales>
<clustering>
<clus scale="   40.775">  1  5  2 -1</clus>
<clus scale="   58.415">  1  4  2 -1</clus>
<clus scale="   67.066">  1  3  2 -1</clus>
<clus scale="   40.775">  1  3  2 -1</clus>
</clustering>
</event>
<event>
 6    0  0.6851428E+002  0.8481748E+02  0.7546771E-02  0.1315911E+00
          2   -1    0    0  505    0 -0.00000000000E+00  0.00000000000E+00  0.10426747250E+04  0.10426747250E+04  0.00000000000E+00 0. -1.
         21   -1    0    0  501  502  0.00000000000E+00 -0.00000000000E+00 -0.17750066054E+03  0.17750066054E+03  0.00000000000E+00 0. -1.
         21    1    1    2  503  504  0.72896985864E+02 -0.11764870363E+02 -0.20616164361E+02  0.76664261267E+02  0.00000000000E+00 0. -1.
         21    1    1    2  504  502  0.10037864507E+02  0.33537406177E+02 -0.85133716445E+02  0.92050344989E+02  0.00000000000E+00 0.  1.
         21    1    1    2  505  503 -0.72353172877E+02  0.63850299619E+02  0.22454975752E+02  0.99076073413E+02  0.00000000000E+00 0.  1.
          2    1    1    2  501    0 -0.10581677494E+02 -0.85622835433E+02  0.94846896951E+03  0.95238470587E+03  0.00000000000E+00 0. -1.
<scales pt_clust_3="78.66443" pt_clust_4="35.00738" pt_clust_5="84.81748" pt_clust_6="14000.00000"></scales>
<clustering>
<clus scale="   35.007">  2  4  1 -1</clus>
<clus scale="   78.664">  2  3  1 -1</clus>
<clus scale="   84.817">  2  5  1 -1</clus>
<clus scale="   35.007">  2  3  1 -1</clus>
</clustering>
</event>
<event>
 6    0  0.6851428E+002  0.1003686E+03  0.7546771E-02  0.1279523E+00
         21   -1    0    0  504  502  0.00000000000E+00  0.00000000000E+00  0.11209018644E+03  0.11209018644E+03  0.00000000000E+00 0.  1.
         -1   -1    0    0    0  501 -0.00000000000E+00 -0.00000000000E+00 -0.37061354457E+03  0.37061354457E+03  0.00000000000E+00 0.  1.
         21    1    1    2  503  501  0.90069313281E+02  0.31545450989E+02 -0.83054234116E+01  0.95794450419E+02  0.00000000000E+00 0.  1.
         21    1    1    2  504  503  0.34868459997E+02 -0.20492056586E+02  0.50279391532E+01  0.40755540210E+02  0.00000000000E+00 0.  1.
         21    1    1    2  505  502 -0.43728426507E+02 -0.10724034430E+02  0.26971271808E+02  0.52484566324E+02  0.00000000000E+00 0.  1.
         -1    1    1    2    0  505 -0.81209346772E+02 -0.32935997328E+00 -0.28221714568E+03  0.29366917406E+03  0.00000000000E+00 0.  1.
<scales pt_clust_3="35.07847" pt_clust_4="35.07847" pt_clust_5="45.02422" pt_clust_6="84.67776"></scales>
<clustering>
<clus scale="   35.078">  3  4 -1 -1</clus>
<clus scale="   45.024">  1  5  2 -1</clus>
<clus scale="   84.678">  2  6  1 -1</clus>
<clus scale="   45.024">  1  3  2 -1</clus>
</clustering>
</event>
<event>
 6    0  0.6851428E+002  0.7021680E+02  0.7546771E-02  0.1359357E+00
          2   -1    0    0  502    0 -0.00000000000E+00  0.00000000000E+00  0.10786723104E+04  0.10786723104E+04  0.00000000000E+00 0. -1.
         21   -1    0    0  503  502  0.00000000000E+00 -0.00000000000E+00 -0.58609181279E+02  0.58609181279E+02  0.00000000000E+00 0.  1.
         21    1    1    2  503  504 -0.38139649230E+02  0.11699273658E+02 -0.29907975893E+02  0.49859731944E+02  0.00000000000E+00 0.  1.
         21    1    1    2  504  505  0.75936919964E+02 -0.49510583536E+02  0.17471770932E+03  0.19683493502E+03  0.00000000000E+00 0. -1.
         21    1    1    2  505  501 -0.10033982698E+02  0.76344083666E+02  0.21053984199E+03  0.22417877907E+03  0.00000000000E+00 0. -1.
          2    1    1    2  501    0 -0.27763288035E+02 -0.38532773789E+02  0.66471355372E+03  0.66640804566E+03  0.00000000000E+00 0. -1.
<scales pt_clust_3="39.89368" pt_clust_4="14000.00000" pt_clust_5="70.21680" pt_clust_6="48.10259"></scales>
<clustering>
<clus scale="   39.894">  2  3  1 -1</clus>
<clus scale="   48.103">  1  6  2 -1</clus>
<clus scale="   70.217">  1  5  2 -1</clus>
<clus scale="   39.894">  2  3  1 -1</clus>
</clustering>
</event>
<event>
 6    0  0.6851428E+002  0.2418358E+03  0.7546771E-02  0.1118576E+00
         21   -1    0    0  503  502  0.00000000000E+00  0.00000000000E+00  0.56814059500E+03  0.56814059500E+03  0.00000000000E+00 0. -1.
          2   -1    0    0  504    0 -0.00000000000E+00 -0.00000000000E+00 -0.23896165688E+04  0.23896165688E+04  0.00000000000E+00 0. -1.
         21    1    1    2  503  505 -0.70383135218E+02 -0.30320021891E+02  0.19098018893E+03  0.20578270582E+03  0.00000000000E+00 0. -1.
         21    1    1    2  504  502  0.51215876985E+02  0.11169079593E+02  0.12187547150E+03  0.13267043736E+03  0.00000000000E+00 0. -1.
         21    1    1    2  505  501 -0.18842760433E+03 -0.10623202955E+03  0.18663742562E+03  0.28569867836E+03  0.00000000000E+00 0. -1.
          2    1    1    2  501    0  0.20759486256E+03  0.12538297184E+03 -0.23209690599E+04  0.23336053423E+04  0.00000000000E+00 0. -1.
<scales pt_clust_3="53.67112" pt_clust_4="52.41960" pt_clust_5="241.83576" pt_clust_6="14000.00000"></scales>
<clustering>
<clus scale="   52.420">  1  4  2 -1</clus>
<clus scale="   53.671">  1  3  2 -1</clus>
<clus scale="  241.836">  1  5  2 -1</clus>
<clus scale="   52.420">  1  3  2 -1</clus>
</clustering>
</event>
<event>
 6    0  0.6851428E+002  0.1260089E+03  0.7546771E-02  0.1233501E+00
         21   -1    0    0  503  502  0.00000000000E+00  0.00000000000E+00  0.60661976499E+02  0.60661976499E+02  0.00000000000E+00 0. -1.
          1   -1    0    0  502    0 -0.00000000000E+00 -0.00000000000E+00 -0.98339396225E+03  0.98339396225E+03  0.00000000000E+00 0. -1.
         21    1    1    2  503  505 -0.11128631243E+02 -0.11049141002E+03 -0.29017882184E+02  0.11477907304E+03  0.00000000000E+00 0. -1.
         21    1    1    2  504  501 -0.21542158665E+02  0.39613754104E+02 -0.13330603623E+03  0.14072602250E+03  0.00000000000E+00 0. -1.
         21    1    1    2  505  504  0.52908243115E+01  0.95646911151E+02 -0.15632654470E+03  0.18334206559E+03  0.00000000000E+00 0. -1.
          1    1    1    2  501    0  0.27379965597E+02 -0.24769255236E+02 -0.60408152264E+03  0.60520877762E+03  0.00000000000E+00 0. -1.
<scales pt_clust_3="115.34598" pt_clust_4="34.80562" pt_clust_5="34.80562" pt_clust_6="36.92125"></scales>
<clustering>
<clus scale="   34.806">  4  5 -1 -1</clus>
<clus scale="   36.921">  2  6  1 -1</clus>
<clus scale="  115.346">  1  3  2 -1</clus>
<clus scale="  115.346">  1  3  2 -1</clus>
</clustering>
</event>
<event>
 6    0  0.6851428E+002  0.8849974E+02  0.7546771E-02  0.1306526E+00
         21   -1    0    0  504  502  0.00000000000E+00  0.00000000000E+00  0.16436445883E+04  0.16436445883E+04  0.00000000000E+00 0.  1.
         -2   -1    0    0    0  501 -0.00000000000E+00 -0.00000000000E+00 -0.83540714568E+03  0.83540714568E+03  0.00000000000E+00 0.  1.
         21    1    1    2  503  502  0.82224061119E+02 -0.20564197993E+02  0.43673161154E+03  0.44487996469E+03  0.00000000000E+00 0.  1.
         21    1    1    2  504  501 -0.22511015684E+01  0.12560430138E+03  0.67764005589E+03  0.68918615289E+03  0.00000000000E+00 0.  1.
         21    1    1    2  505  503 -0.87054739000E+02 -0.16952799085E+02  0.51324656061E+03  0.52085310497E+03  0.00000000000E+00 0.  1.
         -2    1    1    2    0  505  0.70817794500E+01 -0.88087304307E+02 -0.81938078545E+03  0.82413251140E+03  0.00000000000E+00 0.  1.
<scales pt_clust_3="84.75661" pt_clust_4="88.49974" pt_clust_5="57.78567" pt_clust_6="14000.00000"></scales>
<clustering>
<clus scale="   84.757">  1  3  2 -1</clus>
<clus scale="   57.786">  1  5  2 -1</clus>
<clus scale="   88.500">  1  4  2 -1</clus>
<clus scale="   84.757">  1  3  2 -1</clus>
</clustering>
</event>
<event>
 6    0  0.6851428E+002  0.1012912E+03  0.7546771E-02  0.1277604E+00
          2   -1    0    0  505    0 -0.00000000000E+00  0.00000000000E+00  0.13855864272E+03  0.13855864272E+03  0.00000000000E+00 0.  1.
         21   -1    0    0  503  502  0.00000000000E+00 -0.00000000000E+00 -0.21625809950E+03  0.21625809950E+03  0.00000000000E+00 0. -1.
         21    1    1    2  503  501  0.56107540496E+02  0.82539991655E+02 -0.59577652582E+02  0.11623425919E+03  0.00000000000E+00 0. -1.
         21    1    1    2  504  502  0.57665125952E+00 -0.32467999407E+02 -0.43895773190E+02  0.54601670452E+02  0.00000000000E+00 0. -1.
         21    1    1    2  505  504  0.47400458874E+02 -0.20099189221E+02 -0.32599299452E+02  0.60938454473E+02  0.00000000000E+00 0.  1.
          2    1    1    2  501    0 -0.10408465063E+03 -0.29972803027E+02  0.58373268445E+02  0.12304235810E+03  0.00000000000E+00 0.  1.
<scales pt_clust_3="14000.00000" pt_clust_4="32.47312" pt_clust_5="55.80572" pt_clust_6="101.29122"></scales>
<clustering>
<clus scale="   32.473">  2  4  1 -1</clus>
<clus scale="   55.806">  2  5  1 -1</clus>
<clus scale="  101.291">  1  6  2 -1</clus>
<clus scale="   32.473">  2  3  1 -1</clus>
</clustering>
</event>
<event>
 6    0  0.6851428E+002  0.9412177E+02  0.7546771E-02  0.1293166E+00
         21   -1    0    0  505  502  0.00000000000E+00  0.00000000000E+00  0.82702354182E+02  0.82702354182E+02  0.00000000000E+00 0.  1.
          2   -1    0    0  504    0 -0.00000000000E+00 -0.00000000000E+00 -0.27974757475E+04  0.27974757475E+04  0.00000000000E+00 0. -1.
         21    1    1    2  503  501  0.73344120363E+02  0.12087440886E+03 -0.25546626506E+03  0.29198115572E+03  0.00000000000E+00 0. -1.
         21    1    1    2  504  502 -0.33261356937E+02 -0.80507864726E+01  0.23250968299E+02  0.41373186425E+02  0.00000000000E+00 0.  1.
         21    1    1    2  505  503  0.52943769527E+01 -0.32860567647E+02  0.22437888997E+02  0.40141078661E+02  0.00000000000E+00 0. -1.
          2    1    1    2  501    0 -0.45377140379E+02 -0.79963054737E+02 -0.25049959856E+04  0.25066826809E+04  0.00000000000E+00 0. -1.
<scales pt_clust_3="14000.00000" pt_clust_4="41.47176" pt_clust_5="33.28434" pt_clust_6="94.12177"></scales>
<clustering>
<clus scale="   33.284">  1  5  2 -1</clus>
<clus scale="   41.472">  1  4  2 -1</clus>
<clus scale="   94.122">  2  6  1 -1</clus>
<clus scale="   33.284">  1  3  2 -1</clus>
</clustering>
</event>
<event>
 6    0  0.6851428E+002  0.2214124E+03  0.7546771E-02  0.1132834E+00
          2   -1    0    0  502    0 -0.00000000000E+00  0.00000000000E+00  0.64690479358E+03  0.64690479358E+03  0.00000000000E+00 0.  1.
         21   -1    0    0  504  502  0.00000000000E+00 -0.00000000000E+00 -0.15424710976E+03  0.15424710976E+03  0.00000000000E+00 0.  1.
         21    1    1    2  503  501  0.46007750144E+02 -0.62360665753E+02  0.81824124901E+02  0.11269761809E+03  0.00000000000E+00 0.  1.
         21    1    1    2  504  505 -0.10831256509E+03  0.14762907852E+03  0.52123733389E+02  0.19037552407E+03  0.00000000000E+00 0.  1.
         21    1    1    2  505  503  0.78207395868E+02 -0.14458535526E+03  0.34318810470E+02  0.16792588388E+03  0.00000000000E+00 0.  1.
          2    1    1    2  501    0 -0.15902580925E+02  0.59316942494E+02  0.32439101506E+03  0.33015287731E+03  0.00000000000E+00 0.  1.
<scales pt_clust_3="57.46382" pt_clust_4="204.98571" pt_clust_5="57.46382" pt_clust_6="61.41166"></scales>
<clustering>
<clus scale="   57.464">  3  5 -1 -1</clus>
<clus scale="   61.412">  1  6  2 -1</clus>
<clus scale="  204.986">  2  4  1 -1</clus>
<clus scale="  204.986">  2  3  1 -1</clus>
</clustering>
</event>
<event>
 6    0  0.6851428E+002  0.1702066E+03  0.7546771E-02  0.1177633E+00
          2   -1    0    0  503    0 -0.00000000000E+00  0.00000000000E+00  0.56754899932E+03  0.56754899932E+03  0.00000000000E+00 0.  1.
         21   -1    0    0  501  502  0.00000000000E+00 -0.00000000000E+00 -0.45323478141E+03  0.45323478141E+03  0.00000000000E+00 0.  1.
         21    1    1    2  503  504 -0.71862590667E+02 -0.11488173086E+03  0.20564490742E+03  0.24627600770E+03  0.00000000000E+00 0.  1.
         21    1    1    2  504  505  0.55744597460E+02  0.12861320639E+03 -0.13857883645E+03  0.19711141752E+03  0.00000000000E+00 0.  1.
         21    1    1    2  505  502 -0.96202777620E+01  0.53502566040E+02 -0.25805573382E+03  0.26371923721E+03  0.00000000000E+00 0.  1.
          2    1    1    2  501    0  0.25738270969E+02 -0.67234041575E+02  0.30530388076E+03  0.31367711830E+03  0.00000000000E+00 0.  1.
<scales pt_clust_3="14000.00000" pt_clust_4="170.20660" pt_clust_5="54.36060" pt_clust_6="70.83010"></scales>
<clustering>
<clus scale="   54.361">  2  5  1 -1</clus>
<clus scale="   70.830">  1  6  2 -1</clus>
<clus scale="  170.207">  2  4  1 -1</clus>
<clus scale="   54.361">  2  3  1 -1</clus>
</clustering>
</event>
<event>
 6    0  0.6851428E+002  0.7396554E+02  0.7546771E-02  0.1347105E+00
          3   -1    0    0  504    0 -0.00000000000E+00  0.00000000000E+00  0.25535396056E+04  0.25535396056E+04  0.00000000000E+00 0. -1.
         21   -1    0    0  501  502  0.00000000000E+00 -0.00000000000E+00 -0.12617619207E+03  0.12617619207E+03  0.00000000000E+00 0.  1.
         21    1    1    2  503  505 -0.17263343853E+02 -0.74475816997E+02  0.10360044765E+02  0.77149211830E+02  0.00000000000E+00 0. -1.
         21    1    1    2  504  503 -0.54088399404E+02  0.84380821267E+02  0.93187206258E+03  0.93724661587E+03  0.00000000000E+00 0.  1.
         21    1    1    2  505  502  0.35600673186E+02  0.35898292493E+01 -0.86300220446E+02  0.93423888029E+02  0.00000000000E+00 0.  1.
          3    1    1    2  501    0  0.35751070071E+02 -0.13494833519E+02  0.15714315266E+04  0.15718960819E+04  0.00000000000E+00 0. -1.
<scales pt_clust_3="73.96554" pt_clust_4="14000.00000" pt_clust_5="35.78121" pt_clust_6="38.41828"></scales>
<clustering>
<clus scale="   35.781">  2  5  1 -1</clus>
<clus scale="   38.418">  1  6  2 -1</clus>
<clus scale="   73.966">  2  3  1 -1</clus>
<clus scale="   35.781">  2  3  1 -1</clus>
</clustering>
</event>
<event>
 6    0  0.2022813E+003  0.1015867E+03  0.7546771E-02  0.1276994E+00
         21   -1    0    0  503  502  0.00000000000E+00  0.00000000000E+00  0.66153703550E+03  0.66153703550E+03  0.00000000000E+00 0.  1.
          2   -1    0    0  505    0 -0.00000000000E+00 -0.00000000000E+00 -0.83368182932E+03  0.83368182932E+03  0.00000000000E+00 0.  1.
         21    1    1    2  503  501 -0.26012069176E+02  0.27677600125E+02  0.22814355026E+02  0.44307697827E+02  0.00000000000E+00 0.  1.
         21    1    1    2  504  502  0.12860190251E+03  0.15462399068E+02  0.57516885892E+03  0.58957336388E+03  0.00000000000E+00 0.  1.
         21    1    1    2  505  504 -0.76151554192E+02 -0.11312959321E+02  0.12172708521E+02  0.77943678943E+02  0.00000000000E+00 0. -1.
          2    1    1    2  501    0 -0.26438279143E+02 -0.31827039871E+02 -0.78230071630E+03  0.78339412418E+03  0.00000000000E+00 0.  1.
<scales pt_clust_3="37.98259" pt_clust_4="14000.00000" pt_clust_5="101.58675" pt_clust_6="41.37158"></scales>
<clustering>
<clus scale="   37.983">  1  3  2 -1</clus>
<clus scale="   41.372">  2  6  1 -1</clus>
<clus scale="  101.587">  2  5  1 -1</clus>
<clus scale="   37.983">  1  3  2 -1</clus>
</clustering>
</event>
<event>
 6    0  0.6851428E+002  0.1488207E+03  0.7546771E-02  0.1201930E+00
          3   -1    0    0  503    0 -0.00000000000E+00  0.00000000000E+00  0.47113306718E+04  0.47113306718E+04  0.00000000000E+00 0.  1.
         21   -1    0    0  504  502  0.00000000000E+00 -0.00000000000E+00 -0.87807809169E+02  0.87807809169E+02  0.00000000000E+00 0.  1.
         21    1    1    2  503  505  0.16371748453E+03  0.13388011199E+02  0.15019589429E+03  0.22257911009E+03  0.00000000000E+00 0.  1.
         21    1    1    2  504  501 -0.21858505845E+02  0.27702640425E+02  0.36621199270E+02  0.50856098949E+02  0.00000000000E+00 0. -1.
         21    1    1    2  505  502 -0.35094944306E+02  0.63647185918E+02 -0.12701451890E+02  0.73783102885E+02  0.00000000000E+00 0.  1.
          3    1    1    2  501    0 -0.10676403438E+03 -0.10473783754E+03  0.44494072210E+04  0.44519201690E+04  0.00000000000E+00 0.  1.
<scales pt_clust_3="148.82074" pt_clust_4="35.28782" pt_clust_5="91.39068" pt_clust_6="14000.00000"></scales>
<clustering>
<clus scale="   35.288">  2  4  1 -1</clus>
<clus scale="   91.391">  2  5  1 -1</clus>
<clus scale="  148.821">  2  3  1 -1</clus>
<clus scale="   35.288">  2  3  1 -1</clus>
</clustering>
</event>
<event>
 6    0  0.6851428E+002  0.1792610E+03  0.7546771E-02  0.1168520E+00
         21   -1    0    0  505  502  0.00000000000E+00  0.00000000000E+00  0.13105438504E+02  0.13105438504E+02  0.00000000000E+00 0. -1.
          2   -1    0    0  504    0 -0.00000000000E+00 -0.00000000000E+00 -0.43352958507E+04  0.43352958507E+04  0.00000000000E+00 0. -1.
         21    1    1    2  503  502 -0.75710454280E+02 -0.28824603884E+02 -0.89263643353E+03  0.89630504469E+03  0.00000000000E+00 0. -1.
         21    1    1    2  504  503 -0.10306840143E+03 -0.99609738526E+02 -0.14063730936E+04  0.14136585421E+04  0.00000000000E+00 0. -1.
         21    1    1    2  505  501  0.11049810421E+03  0.10922913710E+03 -0.92413062372E+03  0.93710097915E+03  0.00000000000E+00 0. -1.
          2    1    1    2  501    0  0.68280751506E+02  0.19205205312E+02 -0.10990502614E+04  0.11013367232E+04  0.00000000000E+00 0. -1.
<scales pt_clust_3="33.86987" pt_clust_4="33.86987" pt_clust_5="173.50738" pt_clust_6="70.93025"></scales>
<clustering>
<clus scale="   33.870">  3  4 -1 -1</clus>
<clus scale="   70.930">  2  6  1 -1</clus>
<clus scale="  173.507">  1  5  2 -1</clus>
<clus scale="  173.507">  1  3  2 -1</clus>
</clustering>
</event>
<event>
 6    0  0.6851428E+002  0.1660137E+03  0.7546771E-02  0.1182070E+00
         21   -1    0    0  505  502  0.00000000000E+00  0.00000000000E+00  0.74559616066E+02  0.74559616066E+02  0.00000000000E+00 0.  1.
          2   -1    0    0  504    0 -0.00000000000E+00 -0.00000000000E+00 -0.19417070038E+04  0.19417070038E+04  0.00000000000E+00 0. -1.
         21    1    1    2  503  501  0.24758887820E+02  0.11564023069E+03 -0.52452679167E+02  0.12937136094E+03  0.00000000000E+00 0.  1.
         21    1    1    2  504  502 -0.93910279968E+01 -0.12692893412E+03 -0.52900116169E+03  0.54409684321E+03  0.00000000000E+00 0. -1.
         21    1    1    2  505  503  0.32894156788E+02  0.35205020609E+02  0.72586174642E+01  0.48724804303E+02  0.00000000000E+00 0.  1.
          2    1    1    2  501    0 -0.48262016611E+02 -0.23916317182E+02 -0.12929521644E+04  0.12940736115E+04  0.00000000000E+00 0. -1.
<scales pt_clust_3="38.28447" pt_clust_4="154.79975" pt_clust_5="38.28447" pt_clust_6="53.86290"></scales>
<clustering>
<clus scale="   38.284">  3  5 -1 -1</clus>
<clus scale="   53.863">  2  6  1 -1</clus>
<clus scale="  154.800">  2  4  1 -1</clus>
<clus scale="  166.014">  1  3  2 -1</clus>
</clustering>
</event>
<event>
 6    0  0.6851428E+002  0.1030503E+03  0.7546771E-02  0.1274009E+00
          2   -1    0    0  504    0 -0.00000000000E+00  0.00000000000E+00  0.93800128478E+03  0.93800128478E+03  0.00000000000E+00 0. -1.
         21   -1    0    0  505  502  0.00000000000E+00 -0.00000000000E+00 -0.49133550201E+02  0.49133550201E+02  0.00000000000E+00 0. -1.
         21    1    1    2  503  502 -0.97426829801E+02 -0.65361216924E+02  0.10312631627E+03  0.15620215412E+03  0.00000000000E+00 0. -1.
         21    1    1    2  504  503  0.17611763565E+02 -0.31159809933E+02  0.17955918300E+03  0.18309180258E+03  0.00000000000E+00 0. -1.
         21    1    1    2  505  501  0.93425062735E+02  0.12555572642E+02  0.11199105802E+03  0.14638265549E+03  0.00000000000E+00 0. -1.
          2    1    1    2  501    0 -0.13609996499E+02  0.83965454214E+02  0.49419117728E+03  0.50145822280E+03  0.00000000000E+00 0. -1.
<scales pt_clust_3="14000.00000" pt_clust_4="35.79257" pt_clust_5="103.05034" pt_clust_6="63.49733"></scales>
<clustering>
<clus scale="   35.793">  1  4  2 -1</clus>
<clus scale="   63.497">  1  6  2 -1</clus>
<clus scale="  103.050">  2  5  1 -1</clus>
<clus scale="  103.050">  2  3  1 -1</clus>
</clustering>
</event>
<event>
 6    0  0.6851428E+002  0.1771913E+03  0.7546771E-02  0.1170549E+00
         21   -1    0    0  505  502  0.00000000000E+00  0.00000000000E+00  0.19915941226E+04  0.19915941226E+04  0.00000000000E+00 0.  1.
         -1   -1    0    0    0  501 -0.00000000000E+00 -0.00000000000E+00 -0.14071130946E+03  0.14071130946E+03  0.00000000000E+00 0.  1.
         21    1    1    2  503  504 -0.68155569979E+02  0.20850085211E+02  0.10738394791E+04  0.10762021811E+04  0.00000000000E+00 0.  1.
         21    1    1    2  504  502 -0.70712047854E+02  0.52580530459E+01  0.62768048986E+03  0.63167288859E+03  0.00000000000E+00 0.  1.
         21    1    1    2  505  501 -0.15956347129E+02  0.52250234514E+02  0.22761405249E+03  0.23407872375E+03  0.00000000000E+00 0.  1.
         -1    1    1    2    0  503  0.15482396496E+03 -0.78358372771E+02 -0.78251208315E+02  0.19035163859E+03  0.00000000000E+00 0.  1.
<scales pt_clust_3="41.13950" pt_clust_4="41.13950" pt_clust_5="54.63233" pt_clust_6="172.32403"></scales>
<clustering>
<clus scale="   41.139">  3  4 -1 -1</clus>
<clus scale="   54.632">  1  5  2 -1</clus>
<clus scale="  172.324">  2  6  1 -1</clus>
<clus scale="   54.632">  1  3  2 -1</clus>
</clustering>
</event>
<event>
 6    0  0.6851428E+002  0.8430328E+02  0.7546771E-02  0.1317265E+00
          3   -1    0    0  504    0 -0.00000000000E+00  0.00000000000E+00  0.30635684519E+02  0.30635684519E+02  0.00000000000E+00 0.  1.
         21   -1    0    0  501  502  0.00000000000E+00 -0.00000000000E+00 -0.77710801862E+03  0.77710801862E+03  0.00000000000E+00 0.  1.
         21    1    1    2  503  502  0.40663495313E+02 -0.61875818624E+02 -0.24363809051E+03  0.25464024805E+03  0.00000000000E+00 0.  1.
         21    1    1    2  504  505 -0.46419240502E+02 -0.14413480552E+02 -0.13860401666E+03  0.14687943269E+03  0.00000000000E+00 0.  1.
         21    1    1    2  505  503 -0.30401147765E+02  0.93984575489E+02 -0.34977034744E+03  0.36345099554E+03  0.00000000000E+00 0.  1.
          3    1    1    2  501    0  0.36156892954E+02 -0.17695276313E+02 -0.14459879494E+02  0.42773026862E+02  0.00000000000E+00 0.  1.
<scales pt_clust_3="14000.00000" pt_clust_4="41.83175" pt_clust_5="84.30328" pt_clust_6="40.25474"></scales>
<clustering>
<clus scale="   40.255">  1  6  2 -1</clus>
<clus scale="   41.832">  1  4  2 -1</clus>
<clus scale="   84.303">  1  5  2 -1</clus>
<clus scale="   84.303">  2  3  1 -1</clus>
</clustering>
</event>
<event>
 6    0  0.6851428E+002  0.1578866E+03  0.7546771E-02  0.1191104E+00
          2   -1    0    0  504    0 -0.00000000000E+00  0.00000000000E+00  0.12293947488E+03  0.12293947488E+03  0.00000000000E+00 0.  1.
         21   -1    0    0  503  502  0.00000000000E+00 -0.00000000000E+00 -0.75346300925E+03  0.75346300925E+03  0.00000000000E+00 0.  1.
         21    1    1    2  503  505 -0.22831956935E+02 -0.65656451401E+02 -0.71499336028E+02  0.99720724629E+02  0.00000000000E+00 0.  1.
         21    1    1    2  504  502  0.33332520545E+02  0.27533096500E+02 -0.45532422243E+03  0.45737214154E+03  0.00000000000E+00 0.  1.
         21    1    1    2  505  501 -0.10862594147E+03 -0.52732075533E+02 -0.13586440594E+03  0.18176744414E+03  0.00000000000E+00 0.  1.
          2    1    1    2  501    0  0.98125377858E+02  0.90855430434E+02  0.32164430019E+02  0.13754217381E+03  0.00000000000E+00 0.  1.
<scales pt_clust_3="54.50648" pt_clust_4="43.23342" pt_clust_5="54.50648" pt_clust_6="141.38366"></scales>
<clustering>
<clus scale="   43.233">  2  4  1 -1</clus>
<clus scale="   54.506">  3  5 -1 -1</clus>
<clus scale="  141.384">  1  6  2 -1</clus>
<clus scale="   43.233">  2  3  1 -1</clus>
</clustering>
</event>
<event>
 6    0  0.6851428E+002  0.1280301E+03  0.7546771E-02  0.1230408E+00
         -1   -1    0    0    0  501 -0.00000000000E+00  0.00000000000E+00  0.14551005447E+04  0.14551005447E+04  0.00000000000E+00 0. -1.
         21   -1    0    0  503  502  0.00000000000E+00 -0.00000000000E+00 -0.27997355138E+04  0.27997355138E+04  0.00000000000E+00 0.  1.
         21    1    1    2  503  504 -0.49219894082E+02  0.89323984587E-01 -0.18030479274E+04  0.18037196108E+04  0.00000000000E+00 0.  1.
         21    1    1    2  504  505 -0.74914139339E+02  0.35525676379E+02 -0.97512429591E+03  0.97864273074E+03  0.00000000000E+00 0.  1.
         21    1    1    2  505  501  0.33973399479E+02 -0.66761655841E+02  0.60940253957E+02  0.96566169620E+02  0.00000000000E+00 0. -1.
         -1    1    1    2    0  502  0.90160633942E+02  0.31146655477E+02  0.13725970002E+04  0.13759075474E+04  0.00000000000E+00 0. -1.
<scales pt_clust_3="49.21998" pt_clust_4="128.03013" pt_clust_5="74.51229" pt_clust_6="14000.00000"></scales>
<clustering>
<clus scale="   49.220">  2  3  1 -1</clus>
<clus scale="   74.512">  1  5  2 -1</clus>
<clus scale="  128.030">  2  4  1 -1</clus>
<clus scale="   49.220">  2  3  1 -1</clus>
</clustering>
</event>
<event>
 6    0  0.6851428E+002  0.1345032E+03  0.7546771E-02  0.1220923E+00
          2   -1    0    0  502    0 -0.00000000000E+00  0.00000000000E+00  0.64029046400E+03  0.64029046400E+03  0.00000000000E+00 0. -1.
         21   -1    0    0  504  502  0.00000000000E+00 -0.00000000000E+00 -0.14173855281E+03  0.14173855281E+03  0.00000000000E+00 0.  1.
         21    1    1    2  503  501 -0.14256324840E+02  0.57666096089E+02  0.74699724860E+02  0.95439354201E+02  0.00000000000E+00 0.  1.
         21    1    1    2  504  505 -0.40777550218E+02 -0.11823739972E+03 -0.67485725664E+02  0.14211690421E+03  0.00000000000E+00 0.  1.
         21    1    1    2  505  503  0.64625747462E+01  0.73230701263E+02  0.28382044532E+02  0.78803812926E+02  0.00000000000E+00 0.  1.
          2    1    1    2  501    0  0.48571300312E+02 -0.12659397633E+02  0.46295586746E+03  0.46566894548E+03  0.00000000000E+00 0. -1.
<scales pt_clust_3="45.30427" pt_clust_4="124.70363" pt_clust_5="45.30427" pt_clust_6="50.19394"></scales>
<clustering>
<clus scale="   45.304">  3  5 -1 -1</clus>
<clus scale="   50.194">  1  6  2 -1</clus>
<clus scale="  124.704">  2  4  1 -1</clus>
<clus scale="  124.704">  2  3  1 -1</clus>
</clustering>
</event>
<event>
 6    0  0.6851428E+002  0.1790293E+03  0.7546771E-02  0.1168746E+00
         -2   -1    0    0    0  501 -0.00000000000E+00  0.00000000000E+00  0.75344093104E+03  0.75344093104E+03  0.00000000000E+00 0. -1.
         21   -1    0    0  505  502  0.00000000000E+00 -0.00000000000E+00 -0.15222267091E+03  0.15222267091E+03  0.00000000000E+00 0. -1.
         21    1    1    2  503  502  0.53404761424E+02 -0.17465680584E+03  0.13156591694E+03  0.22509255623E+03  0.00000000000E+00 0. -1.
         21    1    1    2  504  503 -0.55244858361E+02  0.16828523772E+03  0.88626915990E+02  0.19805717823E+03  0.00000000000E+00 0. -1.
         21    1    1    2  505  501 -0.49772070059E+02  0.34914572722E+02 -0.29638213523E+02  0.67636602866E+02  0.00000000000E+00 0. -1.
         -2    1    1    2    0  504  0.51612166997E+02 -0.28543004605E+02  0.41066364072E+03  0.41487726463E+03  0.00000000000E+00 0. -1.
<scales pt_clust_3="14000.00000" pt_clust_4="179.02931" pt_clust_5="57.52755" pt_clust_6="58.97897"></scales>
<clustering>
<clus scale="   58.979">  1  6  2 -1</clus>
<clus scale="   57.528">  2  5  1 -1</clus>
<clus scale="  179.029">  1  4  2 -1</clus>
<clus scale="   57.528">  2  3  1 -1</clus>
</clustering>
</event>
<event>
 6    0  0.6851428E+002  0.1233351E+03  0.7546771E-02  0.1237694E+00
         21   -1    0    0  503  502  0.00000000000E+00  0.00000000000E+00  0.22876522553E+02  0.22876522553E+02  0.00000000000E+00 0. -1.
          1   -1    0    0  502    0 -0.00000000000E+00 -0.00000000000E+00 -0.32277836948E+04  0.32277836948E+04  0.00000000000E+00 0. -1.
         21    1    1    2  503  505  0.44244138387E+02  0.58979095852E+02 -0.19428917983E+03  0.20780847655E+03  0.00000000000E+00 0. -1.
         21    1    1    2  504  501 -0.15070963099E+02 -0.93182577463E+02 -0.33903981801E+03  0.35193483043E+03  0.00000000000E+00 0. -1.
         21    1    1    2  505  504  0.25700480425E+01  0.56684117330E+02 -0.74994218699E+02  0.94041624522E+02  0.00000000000E+00 0. -1.
          1    1    1    2  501    0 -0.31743223331E+02 -0.22480635719E+02 -0.25965839557E+04  0.25968752859E+04  0.00000000000E+00 0. -1.
<scales pt_clust_3="51.21199" pt_clust_4="110.36830" pt_clust_5="51.21199" pt_clust_6="38.89744"></scales>
<clustering>
<clus scale="   38.897">  2  6  1 -1</clus>
<clus scale="   51.212">  3  5 -1 -1</clus>
<clus scale="  110.368">  2  4  1 -1</clus>
<clus scale="  123.335">  1  3  2 -1</clus>
</clustering>
</event>
<event>
 6    0  0.6851428E+002  0.9353336E+02  0.7546771E-02  0.1294514E+00
         21   -1    0    0  503  502  0.00000000000E+00  0.00000000000E+00  0.89365735618E+02  0.89365735618E+02  0.00000000000E+00 0. -1.
          4   -1    0    0  505    0 -0.00000000000E+00 -0.00000000000E+00 -0.25137357865E+04  0.25137357865E+04  0.00000000000E+00 0. -1.
         21    1    1    2  503  501 -0.24472983186E+02 -0.98680721758E+02 -0.93267827067E+02  0.13796992179E+03  0.00000000000E+00 0.  1.
         21    1    1    2  504  502  0.33158247407E+02  0.31211461885E+02  0.40415956041E+02  0.60885747320E+02  0.00000000000E+00 0. -1.
         21    1    1    2  505  504  0.10783883219E+02  0.11924108031E+03 -0.20782414475E+03  0.23984495516E+03  0.00000000000E+00 0.  1.
          4    1    1    2  501    0 -0.19469147439E+02 -0.51771820437E+02 -0.21636940351E+04  0.21644008979E+04  0.00000000000E+00 0. -1.
<scales pt_clust_3="93.53336" pt_clust_4="45.53707" pt_clust_5="14000.00000" pt_clust_6="54.93862"></scales>
<clustering>
<clus scale="   45.537">  1  4  2 -1</clus>
<clus scale="   54.939">  2  6  1 -1</clus>
<clus scale="   93.533">  1  3  2 -1</clus>
<clus scale="   45.537">  1  3  2 -1</clus>
</clustering>
</event>
<event>
 6    0  0.6851428E+002  0.9289803E+02  0.7546771E-02  0.1295982E+00
         21   -1    0    0  503  502  0.00000000000E+00  0.00000000000E+00  0.86044866752E+02  0.86044866752E+02  0.00000000000E+00 0.  1.
          2   -1    0    0  505    0 -0.00000000000E+00 -0.00000000000E+00 -0.25228279243E+04  0.25228279243E+04  0.00000000000E+00 0.  1.
         21    1    1    2  503  501  0.81281914269E+01  0.43680171628E+02 -0.20634809503E+03  0.21107714516E+03  0.00000000000E+00 0.  1.
         21    1    1    2  504  502  0.24668389400E+02 -0.21757086303E+02  0.75096931797E+02  0.81984446118E+02  0.00000000000E+00 0.  1.
         21    1    1    2  505  504 -0.57475189085E+01 -0.10739806412E+03 -0.74699930373E+03  0.75470215180E+03  0.00000000000E+00 0.  1.
          2    1    1    2  501    0 -0.27049061918E+02  0.85474978792E+02 -0.15585325906E+04  0.15611090480E+04  0.00000000000E+00 0.  1.
<scales pt_clust_3="40.11106" pt_clust_4="32.89225" pt_clust_5="14000.00000" pt_clust_6="92.89803"></scales>
<clustering>
<clus scale="   32.892">  1  4  2 -1</clus>
<clus scale="   40.111">  1  3  2 -1</clus>
<clus scale="   92.898">  2  6  1 -1</clus>
<clus scale="   32.892">  1  3  2 -1</clus>
</clustering>
</event>
<event>
 6    0  0.6851428E+002  0.6281696E+02  0.7546771E-02  0.1386377E+00
          2   -1    0    0  504    0 -0.00000000000E+00  0.00000000000E+00  0.27180441719E+03  0.27180441719E+03  0.00000000000E+00 0. -1.
         21   -1    0    0  503  502  0.00000000000E+00 -0.00000000000E+00 -0.96664890816E+03  0.96664890816E+03  0.00000000000E+00 0.  1.
         21    1    1    2  503  505  0.58518457857E+02  0.35562835559E+02 -0.88414257215E+03  0.88679039974E+03  0.00000000000E+00 0.  1.
         21    1    1    2  504  502 -0.41645899013E+02  0.19056012780E+02 -0.40624441378E+02  0.61219749795E+02  0.00000000000E+00 0.  1.
         21    1    1    2  505  501 -0.71471373371E+02 -0.19998626698E+02  0.29522168048E+02  0.79872778139E+02  0.00000000000E+00 0. -1.
          2    1    1    2  501    0  0.54598814528E+02 -0.34620221641E+02  0.20040035450E+03  0.21057039768E+03  0.00000000000E+00 0. -1.
<scales pt_clust_3="56.98986" pt_clust_4="45.79861" pt_clust_5="62.81696" pt_clust_6="14000.00000"></scales>
<clustering>
<clus scale="   45.799">  2  4  1 -1</clus>
<clus scale="   56.990">  2  3  1 -1</clus>
<clus scale="   62.817">  2  5  1 -1</clus>
<clus scale="   45.799">  2  3  1 -1</clus>
</clustering>
</event>
<event>
 6    0  0.6851428E+002  0.1599480E+03  0.7546771E-02  0.1188756E+00
         21   -1    0    0  504  502  0.00000000000E+00  0.00000000000E+00  0.26710482711E+04  0.26710482711E+04  0.00000000000E+00 0. -1.
         -1   -1    0    0    0  501 -0.00000000000E+00 -0.00000000000E+00 -0.48485566874E+03  0.48485566874E+03  0.00000000000E+00 0. -1.
         21    1    1    2  503  502  0.27925569717E+02  0.11132903807E+02  0.51012032470E+02  0.59211539820E+02  0.00000000000E+00 0. -1.
         21    1    1    2  504  505 -0.15028769406E+02  0.38739319823E+02  0.16112313700E+04  0.16117670820E+04  0.00000000000E+00 0. -1.
         21    1    1    2  505  501 -0.99931560197E+02  0.84880977976E+02  0.98658893349E+03  0.99526319174E+03  0.00000000000E+00 0. -1.
         -1    1    1    2    0  503  0.87034759885E+02 -0.13475320161E+03 -0.46263973365E+03  0.48966212629E+03  0.00000000000E+00 0. -1.
<scales pt_clust_3="30.06292" pt_clust_4="45.64935" pt_clust_5="159.94797" pt_clust_6="14000.00000"></scales>
<clustering>
<clus scale="   30.063">  1  3  2 -1</clus>
<clus scale="   45.649">  1  4  2 -1</clus>
<clus scale="  159.948">  1  5  2 -1</clus>
<clus scale="   30.063">  1  3  2 -1</clus>
</clustering>
</event>
<event>
 6    0  0.6851428E+002  0.2025612E+03  0.7546771E-02  0.1147596E+00
          2   -1    0    0  502    0 -0.00000000000E+00  0.00000000000E+00  0.18337628778E+04  0.18337628778E+04  0.00000000000E+00 0.  1.
         21   -1    0    0  505  502  0.00000000000E+00 -0.00000000000E+00 -0.53935593837E+02  0.53935593837E+02  0.00000000000E+00 0. -1.
         21    1    1    2  503  504 -0.54428562666E+02  0.10522061461E+02  0.38131510641E+03  0.38532375035E+03  0.00000000000E+00 0. -1.
         21    1    1    2  504  501 -0.13840491811E+03 -0.53669299886E+02  0.45675750222E+03  0.48027464116E+03  0.00000000000E+00 0. -1.
         21    1    1    2  505  503  0.17139284477E+02  0.67430471660E+02  0.61653590727E+01  0.69847227813E+02  0.00000000000E+00 0. -1.
          2    1    1    2  501    0  0.17569419630E+03 -0.24283233235E+02  0.93558931627E+03  0.95225285232E+03  0.00000000000E+00 0.  1.
<scales pt_clust_3="54.13823" pt_clust_4="54.13823" pt_clust_5="69.57459" pt_clust_6="182.16092"></scales>
<clustering>
<clus scale="   54.138">  3  4 -1 -1</clus>
<clus scale="   69.575">  2  5  1 -1</clus>
<clus scale="  182.161">  1  6  2 -1</clus>
<clus scale="   69.575">  2  3  1 -1</clus>
</clustering>
</event>
<event>
 6    0  0.6851428E+002  0.1968298E+03  0.7546771E-02  0.1152442E+00
         21   -1    0    0  505  502  0.00000000000E+00  0.00000000000E+00  0.16489849601E+04  0.16489849601E+04  0.00000000000E+00 0.  1.
          3   -1    0    0  503    0 -0.00000000000E+00 -0.00000000000E+00 -0.75914125581E+03  0.75914125581E+03  0.00000000000E+00 0. -1.
         21    1    1    2  503  502 -0.15931552733E+03 -0.87712600048E+02  0.13394129928E+04  0.13517034079E+04  0.00000000000E+00 0.  1.
         21    1    1    2  504  501  0.32362635014E+02  0.77443420989E+02  0.83296498671E+02  0.11825028664E+03  0.00000000000E+00 0.  1.
         21    1    1    2  505  504  0.12591866445E+03  0.89036722879E+02  0.17079429708E+03  0.23011679641E+03  0.00000000000E+00 0.  1.
          3    1    1    2  501    0  0.10342278694E+01 -0.78767543820E+02 -0.70366008425E+03  0.70805572503E+03  0.00000000000E+00 0. -1.
<scales pt_clust_3="186.31449" pt_clust_4="46.82664" pt_clust_5="46.82664" pt_clust_6="78.77433"></scales>
<clustering>
<clus scale="   46.827">  4  5 -1 -1</clus>
<clus scale="   78.774">  2  6  1 -1</clus>
<clus scale="  186.314">  1  3  2 -1</clus>
<clus scale="  186.314">  1  3  2 -1</clus>
</clustering>
</event>
<event>
 6    0  0.6851428E+002  0.1245599E+03  0.7546771E-02  0.1235759E+00
         21   -1    0    0  501  502  0.00000000000E+00  0.00000000000E+00  0.35256682261E+02  0.35256682261E+02  0.00000000000E+00 0.  1.
          1   -1    0    0  503    0 -0.00000000000E+00 -0.00000000000E+00 -0.11162156610E+04  0.11162156610E+04  0.00000000000E+00 0.  1.
         21    1    1    2  503  504 -0.47953748733E+02 -0.10070887550E+03 -0.23988661444E+03  0.26455137008E+03  0.00000000000E+00 0.  1.
         21    1    1    2  504  505 -0.44135792152E+02  0.47707319936E+02 -0.12875283763E+03  0.14422638359E+03  0.00000000000E+00 0.  1.
         21    1    1    2  505  502  0.56225067860E+00  0.76052981766E+02 -0.11442062384E+03  0.13739159844E+03  0.00000000000E+00 0.  1.
          1    1    1    2  501    0  0.91527290206E+02 -0.23051426197E+02 -0.59789890285E+03  0.60530299118E+03  0.00000000000E+00 0.  1.
<scales pt_clust_3="112.04942" pt_clust_4="50.29424" pt_clust_5="50.29424" pt_clust_6="94.38545"></scales>
<clustering>
<clus scale="   50.294">  4  5 -1 -1</clus>
<clus scale="   94.385">  2  6  1 -1</clus>
<clus scale="  112.049">  2  3  1 -1</clus>
<clus scale="  124.560">  1  3  2 -1</clus>
</clustering>
</event>
<event>
 6    0  0.6851428E+002  0.1606855E+03  0.7546771E-02  0.1187925E+00
          1   -1    0    0  504    0 -0.00000000000E+00  0.00000000000E+00  0.65217312525E+03  0.65217312525E+03  0.00000000000E+00 0.  1.
         21   -1    0    0  505  502  0.00000000000E+00 -0.00000000000E+00 -0.25264272594E+03  0.25264272594E+03  0.00000000000E+00 0.  1.
         21    1    1    2  503  502 -0.10341381365E+03  0.14629038927E+02 -0.11510360831E+03  0.15542607980E+03  0.00000000000E+00 0.  1.
         21    1    1    2  504  503 -0.85008328568E+02 -0.32972360706E+02 -0.46555274168E+02  0.10237668704E+03  0.00000000000E+00 0. -1.
         21    1    1    2  505  501  0.56452062807E+02  0.78787792010E+02  0.38077093644E+02  0.10413556849E+03  0.00000000000E+00 0.  1.
          1    1    1    2  501    0  0.13197007941E+03 -0.60444470230E+02  0.52311218815E+03  0.54287751586E+03  0.00000000000E+00 0.  1.
<scales pt_clust_3="62.60306" pt_clust_4="62.60306" pt_clust_5="96.92446" pt_clust_6="146.04983"></scales>
<clustering>
<clus scale="   62.603">  3  4 -1 -1</clus>
<clus scale="   96.924">  2  5  1 -1</clus>
<clus scale="  146.050">  1  6  2 -1</clus>
<clus scale="   96.924">  2  3  1 -1</clus>
</clustering>
</event>
<event>
 6    0  0.6851428E+002  0.8519592E+02  0.7546771E-02  0.1314921E+00
          2   -1    0    0  504    0 -0.00000000000E+00  0.00000000000E+00  0.19919940633E+04  0.19919940633E+04  0.00000000000E+00 0. -1.
         21   -1    0    0  503  502  0.00000000000E+00 -0.00000000000E+00 -0.68468101518E+02  0.68468101518E+02  0.00000000000E+00 0. -1.
         21    1    1    2  503  501  0.44803504826E+02  0.83716996246E+02  0.93407331413E+02  0.13319466606E+03  0.00000000000E+00 0. -1.
         21    1    1    2  504  505 -0.83156493022E+01 -0.78671613199E+02  0.50816767955E+02  0.94025085228E+02  0.00000000000E+00 0. -1.
         21    1    1    2  505  502  0.23288413638E+01 -0.35153181147E+02 -0.14983910100E+02  0.38284294544E+02  0.00000000000E+00 0. -1.
          2    1    1    2  501    0 -0.38816696888E+02  0.30107798100E+02  0.17942857725E+04  0.17949581190E+04  0.00000000000E+00 0. -1.
<scales pt_clust_3="85.19592" pt_clust_4="14000.00000" pt_clust_5="35.23024" pt_clust_6="48.93703"></scales>
<clustering>
<clus scale="   35.230">  2  5  1 -1</clus>
<clus scale="   48.937">  1  6  2 -1</clus>
<clus scale="   85.196">  2  3  1 -1</clus>
<clus scale="   35.230">  2  3  1 -1</clus>
</clustering>
</event>
<event>
 6    0  0.6851428E+002  0.1574067E+03  0.7546771E-02  0.1191656E+00
          2   -1    0    0  505    0 -0.00000000000E+00  0.00000000000E+00  0.23417656558E+04  0.23417656558E+04  0.00000000000E+00 0. -1.
         21   -1    0    0  503  502  0.00000000000E+00 -0.00000000000E+00 -0.12225992585E+04  0.12225992585E+04  0.00000000000E+00 0. -1.
         21    1    1    2  503  504  0.55405050401E+02 -0.13282717744E+03 -0.93839179467E+03  0.94936396549E+03  0.00000000000E+00 0. -1.
         21    1    1    2  504  501  0.15548745909E+03 -0.18917269409E+02 -0.11669139123E+03  0.19532304985E+03  0.00000000000E+00 0. -1.
         21    1    1    2  505  502 -0.56420674402E+02  0.18278679053E+03 -0.43629992814E+02  0.19620876526E+03  0.00000000000E+00 0. -1.
          2    1    1    2  501    0 -0.15447183509E+03 -0.31042343685E+02  0.22178795760E+04  0.22234691337E+04  0.00000000000E+00 0. -1.
<scales pt_clust_3="143.91935" pt_clust_4="157.40674" pt_clust_5="129.79436" pt_clust_6="14000.00000"></scales>
<clustering>
<clus scale="  143.919">  2  3  1 -1</clus>
<clus scale="  129.794">  2  5  1 -1</clus>
<clus scale="  157.407">  2  4  1 -1</clus>
<clus scale="  143.919">  2  3  1 -1</clus>
</clustering>
</event>
<event>
 6    0  0.6851428E+002  0.1855046E+03  0.7546771E-02  0.1162580E+00
          1   -1    0    0  504    0 -0.00000000000E+00  0.00000000000E+00  0.10779557389E+04  0.10779557389E+04  0.00000000000E+00 0.  1.
         21   -1    0    0  503  502  0.00000000000E+00 -0.00000000000E+00 -0.25007652082E+04  0.25007652082E+04  0.00000000000E+00 0.  1.
         21    1    1    2  503  501  0.10194225091E+03  0.39110198869E+02 -0.22464269991E+04  0.22490789431E+04  0.00000000000E+00 0.  1.
         21    1    1    2  504  505 -0.15690362143E+03 -0.69848967994E+02  0.16528945865E+03  0.23836574814E+03  0.00000000000E+00 0. -1.
         21    1    1    2  505  502  0.78984214440E+02  0.11122173584E+02 -0.20883990558E+03  0.22355383030E+03  0.00000000000E+00 0. -1.
          1    1    1    2  501    0 -0.24022843925E+02  0.19616595541E+02  0.86716797680E+03  0.86772242557E+03  0.00000000000E+00 0.  1.
<scales pt_clust_3="14000.00000" pt_clust_4="185.50460" pt_clust_5="79.03171" pt_clust_6="31.01464"></scales>
<clustering>
<clus scale="   31.015">  1  6  2 -1</clus>
<clus scale="   79.032">  2  5  1 -1</clus>
<clus scale="  185.505">  1  4  2 -1</clus>
<clus scale="   79.032">  2  3  1 -1</clus>
</clustering>
</event>
<event>
 6    0  0.6851428E+002  0.9388496E+02  0.7546771E-02  0.1293707E+00
         21   -1    0    0  504  502  0.00000000000E+00  0.00000000000E+00  0.14167632888E+02  0.14167632888E+02  0.00000000000E+00 0.  1.
          1   -1    0    0  505    0 -0.00000000000E+00 -0.00000000000E+00 -0.16464250469E+04  0.16464250469E+04  0.00000000000E+00 0.  1.
         21    1    1    2  503  502  0.44941439561E+02  0.88904714212E+01 -0.14971250980E+03  0.15656503141E+03  0.00000000000E+00 0. -1.
         21    1    1    2  504  501 -0.45931796310E+02 -0.23207323318E+02 -0.15889546684E+03  0.16702119371E+03  0.00000000000E+00 0.  1.
         21    1    1    2  505  503  0.76695774027E+02 -0.47983447431E+02 -0.63915525549E+03  0.64552621450E+03  0.00000000000E+00 0.  1.
          1    1    1    2  501    0 -0.75705417279E+02  0.62300299328E+02 -0.68449418187E+03  0.69148024015E+03  0.00000000000E+00 0.  1.
<scales pt_clust_3="45.81237" pt_clust_4="35.08450" pt_clust_5="14000.00000" pt_clust_6="93.88496"></scales>
<clustering>
<clus scale="   45.812">  1  3  2 -1</clus>
<clus scale="   35.084">  1  4  2 -1</clus>
<clus scale="   93.885">  1  6  2 -1</clus>
<clus scale="   45.812">  1  3  2 -1</clus>
</clustering>
</event>
<event>
 6    0  0.6851428E+002  0.1120268E+03  0.7546771E-02  0.1256862E+00
          3   -1    0    0  505    0 -0.00000000000E+00  0.00000000000E+00  0.77486307306E+03  0.77486307306E+03  0.00000000000E+00 0.  1.
         21   -1    0    0  503  502  0.00000000000E+00 -0.00000000000E+00 -0.22398201279E+03  0.22398201279E+03  0.00000000000E+00 0. -1.
         21    1    1    2  503  501 -0.10014375036E+03  0.12787382820E+03 -0.13943207403E+03  0.21406024839E+03  0.00000000000E+00 0. -1.
         21    1    1    2  504  502 -0.35183261426E+02 -0.30190090864E+02  0.52907510234E+01  0.46661499305E+02  0.00000000000E+00 0.  1.
         21    1    1    2  505  504  0.39030879643E+02 -0.42433491146E+02  0.15835197929E+02  0.59789332075E+02  0.00000000000E+00 0. -1.
          3    1    1    2  501    0  0.96296132140E+02 -0.55250246194E+02  0.66918718534E+03  0.67833400607E+03  0.00000000000E+00 0.  1.
<scales pt_clust_3="112.02680" pt_clust_4="46.36058" pt_clust_5="57.69924" pt_clust_6="14000.00000"></scales>
<clustering>
<clus scale="   46.361">  2  4  1 -1</clus>
<clus scale="   57.699">  2  5  1 -1</clus>
<clus scale="  112.027">  2  3  1 -1</clus>
<clus scale="   46.361">  2  3  1 -1</clus>
</clustering>
</event>
<event>
 6    0  0.6851428E+002  0.1641555E+03  0.7546771E-02  0.1184084E+00
         21   -1    0    0  503  502  0.00000000000E+00  0.00000000000E+00  0.31611203378E+03  0.31611203378E+03  0.00000000000E+00 0. -1.
          1   -1    0    0  504    0 -0.00000000000E+00 -0.00000000000E+00 -0.12949944438E+04  0.12949944438E+04  0.00000000000E+00 0. -1.
         21    1    1    2  503  505 -0.42289263658E+01  0.40001718119E+02  0.54404978265E+02  0.67660349768E+02  0.00000000000E+00 0. -1.
         21    1    1    2  504  502 -0.16592248794E+02  0.39844421909E+02  0.17591632748E+03  0.18113374879E+03  0.00000000000E+00 0. -1.
         21    1    1    2  505  501 -0.87348210980E+02  0.51000600817E+02  0.34656741789E+02  0.10691988120E+03  0.00000000000E+00 0. -1.
          1    1    1    2  501    0  0.10816938614E+03 -0.13084674085E+03 -0.12438604576E+04  0.12553924978E+04  0.00000000000E+00 0. -1.
<scales pt_clust_3="40.22464" pt_clust_4="70.60212" pt_clust_5="14000.00000" pt_clust_6="164.15550"></scales>
<clustering>
<clus scale="   40.225">  1  3  2 -1</clus>
<clus scale="   70.602">  1  4  2 -1</clus>
<clus scale="  164.156">  2  6  1 -1</clus>
<clus scale="   40.225">  1  3  2 -1</clus>
</clustering>
</event>
<event>
 6    0  0.6851428E+002  0.1043534E+03  0.7546771E-02  0.1271399E+00
         21   -1    0    0  504  502  0.00000000000E+00  0.00000000000E+00  0.63072571165E+03  0.63072571165E+03  0.00000000000E+00 0. -1.
          2   -1    0    0  503    0 -0.00000000000E+00 -0.00000000000E+00 -0.25650111653E+03  0.25650111653E+03  0.00000000000E+00 0. -1.
         21    1    1    2  503  505 -0.29085500033E+02 -0.29174551696E+02  0.31481697883E+01  0.41316240776E+02  0.00000000000E+00 0.  1.
         21    1    1    2  504  501 -0.24078476792E+02 -0.10695692310E+03  0.51493693853E+03  0.52647849634E+03  0.00000000000E+00 0. -1.
         21    1    1    2  505  502 -0.27533531385E+02  0.86286689719E+02  0.50111378804E+02  0.10351153781E+03  0.00000000000E+00 0. -1.
          2    1    1    2  501    0  0.80697508210E+02  0.49844785081E+02 -0.19397189201E+03  0.21592055326E+03  0.00000000000E+00 0. -1.
<scales pt_clust_3="41.19613" pt_clust_4="104.35344" pt_clust_5="14000.00000" pt_clust_6="60.81427"></scales>
<clustering>
<clus scale="   41.196">  2  3  1 -1</clus>
<clus scale="   60.814">  2  6  1 -1</clus>
<clus scale="  104.353">  1  4  2 -1</clus>
<clus scale="  104.353">  1  3  2 -1</clus>
</clustering>
</event>
<event>
 6    0  0.6851428E+002  0.8780144E+02  0.7546771E-02  0.1308265E+00
          1   -1    0    0  505    0 -0.00000000000E+00  0.00000000000E+00  0.16653859928E+03  0.16653859928E+03  0.00000000000E+00 0.  1.
         21   -1    0    0  503  502  0.00000000000E+00 -0.00000000000E+00 -0.10834814579E+04  0.10834814579E+04  0.00000000000E+00 0.  1.
         21    1    1    2  503  501  0.47228584908E+02 -0.29457034269E+02 -0.54104866494E+03  0.54390432424E+03  0.00000000000E+00 0.  1.
         21    1    1    2  504  502 -0.88177773012E+02  0.10448994639E+03 -0.48564095476E+03  0.50452017352E+03  0.00000000000E+00 0.  1.
         21    1    1    2  505  504  0.35858468477E+02 -0.23736588936E+02 -0.30139790422E+02  0.52513449539E+02  0.00000000000E+00 0.  1.
          1    1    1    2  501    0  0.50907196282E+01 -0.51296323183E+02  0.13988655150E+03  0.14908210989E+03  0.00000000000E+00 0.  1.
<scales pt_clust_3="56.05708" pt_clust_4="87.80144" pt_clust_5="43.00297" pt_clust_6="14000.00000"></scales>
<clustering>
<clus scale="   43.003">  1  5  2 -1</clus>
<clus scale="   56.057">  2  3  1 -1</clus>
<clus scale="   87.801">  2  4  1 -1</clus>
<clus scale="   56.057">  2  3  1 -1</clus>
</clustering>
</event>
<event>
 6    0  0.6851428E+002  0.1090220E+03  0.7546771E-02  0.1262392E+00
         21   -1    0    0  504  502  0.00000000000E+00  0.00000000000E+00  0.23401133207E+03  0.23401133207E+03  0.00000000000E+00 0.  1.
          1   -1    0    0  503    0 -0.00000000000E+00 -0.00000000000E+00 -0.24539730517E+03  0.24539730517E+03  0.00000000000E+00 0.  1.
         21    1    1    2  503  505 -0.44890669912E+02  0.73936479925E+02  0.11104830495E+03  0.14076043955E+03  0.00000000000E+00 0.  1.
         21    1    1    2  504  501  0.22485430678E+02  0.34029523026E+02  0.35979791889E+02  0.54388863332E+02  0.00000000000E+00 0.  1.
         21    1    1    2  505  502 -0.47249377976E+02 -0.20525852614E+02  0.34002208778E+02  0.61724910258E+02  0.00000000000E+00 0.  1.
          1    1    1    2  501    0  0.69654617209E+02 -0.87440150338E+02 -0.19241627872E+03  0.22253442410E+03  0.00000000000E+00 0.  1.
<scales pt_clust_3="14000.00000" pt_clust_4="40.78729" pt_clust_5="43.22035" pt_clust_6="109.02201"></scales>
<clustering>
<clus scale="   40.787">  1  4  2 -1</clus>
<clus scale="   43.220">  1  5  2 -1</clus>
<clus scale="  109.022">  2  6  1 -1</clus>
<clus scale="   40.787">  1  3  2 -1</clus>
</clustering>
</event>
<event>
 6    0  0.6851428E+002  0.7696740E+02  0.7546771E-02  0.1337885E+00
         -3   -1    0    0    0  501 -0.00000000000E+00  0.00000000000E+00  0.98955847366E+03  0.98955847366E+03  0.00000000000E+00 0.  1.
         21   -1    0    0  505  502  0.00000000000E+00 -0.00000000000E+00 -0.29443579790E+02  0.29443579790E+02  0.00000000000E+00 0.  1.
         21    1    1    2  503  502  0.23525433449E+02  0.70087898378E+02  0.12907815541E+03  0.14875123435E+03  0.00000000000E+00 0.  1.
         21    1    1    2  504  503 -0.52653159169E+02 -0.16225943497E+02  0.10284053237E+03  0.11666966834E+03  0.00000000000E+00 0.  1.
         21    1    1    2  505  501 -0.18288706725E+02 -0.78075453367E+02  0.12810575803E+03  0.15113351201E+03  0.00000000000E+00 0.  1.
         -3    1    1    2    0  504  0.47416432445E+02  0.24213498486E+02  0.60009044806E+03  0.60244763874E+03  0.00000000000E+00 0.  1.
<scales pt_clust_3="76.96740" pt_clust_4="40.35592" pt_clust_5="14000.00000" pt_clust_6="53.24107"></scales>
<clustering>
<clus scale="   53.241">  1  6  2 -1</clus>
<clus scale="   40.356">  1  4  2 -1</clus>
<clus scale="   76.967">  2  3  1 -1</clus>
<clus scale="   76.967">  2  3  1 -1</clus>
</clustering>
</event>
<event>
 6    0  0.6851428E+002  0.5987708E+03  0.7546771E-02  0.9907960E-01
         21   -1    0    0  503  502  0.00000000000E+00  0.00000000000E+00  0.12300590982E+04  0.12300590982E+04  0.00000000000E+00 0. -1.
          1   -1    0    0  504    0 -0.00000000000E+00 -0.00000000000E+00 -0.17814388201E+04  0.17814388201E+04  0.00000000000E+00 0.  1.
         21    1    1    2  503  505 -0.26972210130E+03 -0.34972971949E+03  0.69236093630E+03  0.82123355675E+03  0.00000000000E+00 0. -1.
         21    1    1    2  504  502  0.18703460879E+03  0.56967574404E+02 -0.51547882546E+02  0.20219899509E+03  0.00000000000E+00 0. -1.
         21    1    1    2  505  501 -0.10871614756E+03 -0.11771655074E+03  0.34775483276E+03  0.38289660584E+03  0.00000000000E+00 0. -1.
          1    1    1    2  501    0  0.19140364006E+03  0.41047869583E+03 -0.15399476085E+04  0.16051687606E+04  0.00000000000E+00 0.  1.
<scales pt_clust_3="48.06314" pt_clust_4="195.51790" pt_clust_5="48.06314" pt_clust_6="593.43012"></scales>
<clustering>
<clus scale="   48.063">  3  5 -1 -1</clus>
<clus scale="  195.518">  2  4  1 -1</clus>
<clus scale="  593.430">  2  6  1 -1</clus>
<clus scale="  598.771">  1  3  2 -1</clus>
</clustering>
</event>
<event>
 6    0  0.6851428E+002  0.2816564E+03  0.7546771E-02  0.1094788E+00
          1   -1    0    0  505    0 -0.00000000000E+00  0.00000000000E+00  0.92484751905E+03  0.92484751905E+03  0.00000000000E+00 0. -1.
         21   -1    0    0  504  502  0.00000000000E+00 -0.00000000000E+00 -0.23481423956E+03  0.23481423956E+03  0.00000000000E+00 0. -1.
         21    1    1    2  503  501 -0.45219672116E+02 -0.24424291774E+03  0.33951780634E+03  0.42068011890E+03  0.00000000000E+00 0. -1.
         21    1    1    2  504  503 -0.15476645245E+02  0.33255421527E+03  0.24600641658E+02  0.33382184502E+03  0.00000000000E+00 0. -1.
         21    1    1    2  505  502  0.63603405539E+02 -0.54220351106E+02  0.64045241822E+01  0.83822774950E+02  0.00000000000E+00 0. -1.
          1    1    1    2  501    0 -0.29070881779E+01 -0.34090946419E+02  0.31951030731E+03  0.32133701975E+03  0.00000000000E+00 0. -1.
<scales pt_clust_3="281.65642" pt_clust_4="14000.00000" pt_clust_5="85.08871" pt_clust_6="34.21467"></scales>
<clustering>
<clus scale="   34.215">  1  6  2 -1</clus>
<clus scale="   85.089">  2  5  1 -1</clus>
<clus scale="  281.656">  1  3  2 -1</clus>
<clus scale="   85.089">  2  3  1 -1</clus>
</clustering>
</event>
<event>
 6    0  0.6851428E+002  0.1907783E+03  0.7546771E-02  0.1157761E+00
         21   -1    0    0  505  502  0.00000000000E+00  0.00000000000E+00  0.24404807315E+03  0.24404807315E+03  0.00000000000E+00 0.  1.
          2   -1    0    0  502    0 -0.00000000000E+00 -0.00000000000E+00 -0.19684092489E+04  0.19684092489E+04  0.00000000000E+00 0.  1.
         21    1    1    2  503  504  0.56101985511E+02  0.53846570941E+02  0.83803528815E+01  0.78211995850E+02  0.00000000000E+00 0.  1.
         21    1    1    2  504  501 -0.23492246674E+01 -0.20198599535E+03  0.11782626334E+03  0.23385228138E+03  0.00000000000E+00 0.  1.
         21    1    1    2  505  503  0.45165164895E+02 -0.15593654637E+02 -0.86372028275E+01  0.48555694389E+02  0.00000000000E+00 0.  1.
          2    1    1    2  501    0 -0.98917925739E+02  0.16373307905E+03 -0.18419305891E+04  0.18518373504E+04  0.00000000000E+00 0.  1.
<scales pt_clust_3="82.38192" pt_clust_4="190.77834" pt_clust_5="47.78132" pt_clust_6="14000.00000"></scales>
<clustering>
<clus scale="   47.781">  1  5  2 -1</clus>
<clus scale="   82.382">  1  3  2 -1</clus>
<clus scale="  190.778">  1  4  2 -1</clus>
<clus scale="   47.781">  1  3  2 -1</clus>
</clustering>
</event>
<event>
 6    0  0.6851428E+002  0.2707447E+03  0.7546771E-02  0.1100854E+00
          1   -1    0    0  505    0 -0.00000000000E+00  0.00000000000E+00  0.49631793047E+03  0.49631793047E+03  0.00000000000E+00 0.  1.
         21   -1    0    0  504  502  0.00000000000E+00 -0.00000000000E+00 -0.37258451411E+03  0.37258451411E+03  0.00000000000E+00 0.  1.
         21    1    1    2  503  502  0.46060712403E+01 -0.62591658651E+02 -0.56342228266E+02  0.84340846041E+02  0.00000000000E+00 0.  1.
         21    1    1    2  504  501  0.30021084519E+02  0.67428601426E+01 -0.45085861170E+01  0.31097572693E+02  0.00000000000E+00 0.  1.
         21    1    1    2  505  503  0.14840133691E+03 -0.12660400902E+03 -0.20690863064E+03  0.28436369903E+03  0.00000000000E+00 0.  1.
          1    1    1    2  501    0 -0.18302849267E+03  0.18245280753E+03  0.39149286138E+03  0.46910032681E+03  0.00000000000E+00 0.  1.
<scales pt_clust_3="47.07691" pt_clust_4="30.76901" pt_clust_5="47.07691" pt_clust_6="256.64556"></scales>
<clustering>
<clus scale="   30.769">  2  4  1 -1</clus>
<clus scale="   47.077">  3  5 -1 -1</clus>
<clus scale="  256.646">  1  6  2 -1</clus>
<clus scale="   30.769">  2  3  1 -1</clus>
</clustering>
</event>
<event>
 6    0  0.6851428E+002  0.8253523E+02  0.7546771E-02  0.1322007E+00
         21   -1    0    0  503  502  0.00000000000E+00  0.00000000000E+00  0.92895141726E+03  0.92895141726E+03  0.00000000000E+00 0. -1.
          1   -1    0    0  504    0 -0.00000000000E+00 -0.00000000000E+00 -0.15443528916E+03  0.15443528916E+03  0.00000000000E+00 0.  1.
         21    1    1    2  503  501 -0.20033495882E+01  0.89501077275E+02  0.19191472675E+03  0.21176807735E+03  0.00000000000E+00 0. -1.
         21    1    1    2  504  505 -0.89310030447E+02  0.19070224587E+02  0.24312249010E+03  0.25970849081E+03  0.00000000000E+00 0. -1.
         21    1    1    2  505  502  0.42781430440E+02 -0.71245132854E+02  0.46493912196E+03  0.47230764008E+03  0.00000000000E+00 0. -1.
          1    1    1    2  501    0  0.48531949595E+02 -0.37326169008E+02 -0.12546021072E+03  0.13960249818E+03  0.00000000000E+00 0.  1.
<scales pt_clust_3="14000.00000" pt_clust_4="71.10714" pt_clust_5="82.53523" pt_clust_6="61.22575"></scales>
<clustering>
<clus scale="   61.226">  2  6  1 -1</clus>
<clus scale="   71.107">  2  4  1 -1</clus>
<clus scale="   82.535">  1  5  2 -1</clus>
<clus scale="   82.535">  1  3  2 -1</clus>
</clustering>
</event>
<event>
 6    0  0.6851428E+002  0.2309727E+03  0.7546771E-02  0.1125957E+00
         21   -1    0    0  503  502  0.00000000000E+00  0.00000000000E+00  0.88241513446E+03  0.88241513446E+03  0.00000000000E+00 0. -1.
          2   -1    0    0  504    0 -0.00000000000E+00 -0.00000000000E+00 -0.36465681653E+03  0.36465681653E+03  0.00000000000E+00 0.  1.
         21    1    1    2  503  505  0.35871978055E+02  0.44716253579E+02  0.72330680847E+03  0.72557500048E+03  0.00000000000E+00 0. -1.
         21    1    1    2  504  502 -0.37816837289E+02 -0.24201642309E+03 -0.38711181703E+02  0.24799318099E+03  0.00000000000E+00 0.  1.
         21    1    1    2  505  501 -0.36074569517E+02  0.39571914106E+02 -0.30801193009E+02  0.61773978685E+02  0.00000000000E+00 0. -1.
          2    1    1    2  501    0  0.38019428752E+02  0.15772825541E+03 -0.13603611582E+03  0.21172979083E+03  0.00000000000E+00 0.  1.
<scales pt_clust_3="57.32663" pt_clust_4="212.86125" pt_clust_5="51.50734" pt_clust_6="51.50734"></scales>
<clustering>
<clus scale="   51.507">  5  6 -1 -1</clus>
<clus scale="   57.327">  1  3  2 -1</clus>
<clus scale="  212.861">  1  4  2 -1</clus>
<clus scale="   57.327">  1  3  2 -1</clus>
</clustering>
</event>
<event>
 6    0  0.6851428E+002  0.1084204E+03  0.7546771E-02  0.1263523E+00
         21   -1    0    0  503  502  0.00000000000E+00  0.00000000000E+00  0.18284211439E+02  0.18284211439E+02  0.00000000000E+00 0. -1.
          2   -1    0    0  504    0 -0.00000000000E+00 -0.00000000000E+00 -0.32503835825E+04  0.32503835825E+04  0.00000000000E+00 0. -1.
         21    1    1    2  503  501  0.30680247661E+02  0.44149555302E+01 -0.16240397971E+02  0.34993141544E+02  0.00000000000E+00 0. -1.
         21    1    1    2  504  505 -0.67870799472E+02 -0.29124394349E+02 -0.78841351299E+03  0.79186523047E+03  0.00000000000E+00 0. -1.
         21    1    1    2  505  502  0.49555710857E+02  0.95227679364E+02 -0.43402681648E+03  0.44710553209E+03  0.00000000000E+00 0. -1.
          2    1    1    2  501    0 -0.12365159046E+02 -0.70518240545E+02 -0.19934186437E+04  0.19947038899E+04  0.00000000000E+00 0. -1.
<scales pt_clust_3="30.99628" pt_clust_4="68.07381" pt_clust_5="14000.00000" pt_clust_6="108.42041"></scales>
<clustering>
<clus scale="   30.996">  1  3  2 -1</clus>
<clus scale="   68.074">  2  4  1 -1</clus>
<clus scale="  108.420">  2  6  1 -1</clus>
<clus scale="   30.996">  1  3  2 -1</clus>
</clustering>
</event>
<event>
 6    0  0.6851428E+002  0.2532615E+03  0.7546771E-02  0.1111261E+00
         21   -1    0    0  504  502  0.00000000000E+00  0.00000000000E+00  0.41906495839E+03  0.41906495839E+03  0.00000000000E+00 0.  1.
          2   -1    0    0  502    0 -0.00000000000E+00 -0.00000000000E+00 -0.90334143989E+03  0.90334143989E+03  0.00000000000E+00 0. -1.
         21    1    1    2  503  505 -0.92398693522E+02  0.20211443012E+03 -0.15032587566E+02  0.22274141984E+03  0.00000000000E+00 0.  1.
         21    1    1    2  504  503 -0.10408193705E+02 -0.29462200487E+02  0.28171979412E+03  0.28344733930E+03  0.00000000000E+00 0.  1.
         21    1    1    2  505  501 -0.41468220372E+02  0.13507636320E+02 -0.19504465568E+02  0.47775450986E+02  0.00000000000E+00 0.  1.
          2    1    1    2  501    0  0.14427510760E+03 -0.18615986595E+03 -0.73145922249E+03  0.76844218815E+03  0.00000000000E+00 0. -1.
<scales pt_clust_3="40.15292" pt_clust_4="31.24663" pt_clust_5="40.15292" pt_clust_6="237.84034"></scales>
<clustering>
<clus scale="   31.247">  1  4  2 -1</clus>
<clus scale="   40.153">  3  5 -1 -1</clus>
<clus scale="  237.840">  2  6  1 -1</clus>
<clus scale="   31.247">  1  3  2 -1</clus>
</clustering>
</event>
<event>
 6    0  0.6851428E+002  0.1234499E+03  0.7546771E-02  0.1237512E+00
         21   -1    0    0  504  502  0.00000000000E+00  0.00000000000E+00  0.26925437207E+03  0.26925437207E+03  0.00000000000E+00 0.  1.
          3   -1    0    0  503    0 -0.00000000000E+00 -0.00000000000E+00 -0.22119909533E+03  0.22119909533E+03  0.00000000000E+00 0.  1.
         21    1    1    2  503  502 -0.44255496813E+02  0.37757330791E+02  0.79728706421E+02  0.98695651648E+02  0.00000000000E+00 0.  1.
         21    1    1    2  504  505  0.45981332489E+02 -0.63302934699E+02  0.55889136075E+02  0.96151651105E+02  0.00000000000E+00 0.  1.
         21    1    1    2  505  501  0.63134271683E+01 -0.85035263147E+02  0.64853234723E+02  0.10712981562E+03  0.00000000000E+00 0.  1.
          3    1    1    2  501    0 -0.80392628442E+01  0.11058086706E+03 -0.15241580048E+03  0.18847634902E+03  0.00000000000E+00 0.  1.
<scales pt_clust_3="58.17358" pt_clust_4="42.89916" pt_clust_5="42.89916" pt_clust_6="115.04005"></scales>
<clustering>
<clus scale="   42.899">  4  5 -1 -1</clus>
<clus scale="   58.174">  1  3  2 -1</clus>
<clus scale="  115.040">  2  6  1 -1</clus>
<clus scale="   58.174">  1  3  2 -1</clus>
</clustering>
</event>
<event>
 6    0  0.6851428E+002  0.8712983E+02  0.7546771E-02  0.1309955E+00
         21   -1    0    0  501  502  0.00000000000E+00  0.00000000000E+00  0.58084962708E+03  0.58084962708E+03  0.00000000000E+00 0. -1.
          2   -1    0    0  505    0 -0.00000000000E+00 -0.00000000000E+00 -0.26385065465E+03  0.26385065465E+03  0.00000000000E+00 0. -1.
         21    1    1    2  503  504 -0.12076368358E+03  0.42651376901E+02 -0.17092714076E+02  0.12920978329E+03  0.00000000000E+00 0. -1.
         21    1    1    2  504  502  0.41782007011E+02 -0.41305842569E+02  0.50615442539E+03  0.50955295219E+03  0.00000000000E+00 0. -1.
         21    1    1    2  505  503  0.11443364572E+02  0.32463990310E+02 -0.32984630062E+02  0.47674385994E+02  0.00000000000E+00 0. -1.
          2    1    1    2  501    0  0.67538311994E+02 -0.33809524642E+02 -0.13907810882E+03  0.15826316027E+03  0.00000000000E+00 0. -1.
<scales pt_clust_3="87.12983" pt_clust_4="58.64178" pt_clust_5="34.42181" pt_clust_6="14000.00000"></scales>
<clustering>
<clus scale="   34.422">  2  5  1 -1</clus>
<clus scale="   58.642">  1  4  2 -1</clus>
<clus scale="   87.130">  1  3  2 -1</clus>
<clus scale="   58.642">  1  3  2 -1</clus>
</clustering>
</event>
<event>
 6    0  0.6851428E+002  0.1136889E+03  0.7546771E-02  0.1253887E+00
         21   -1    0    0  503  502  0.00000000000E+00  0.00000000000E+00  0.10489918148E+03  0.10489918148E+03  0.00000000000E+00 0. -1.
          2   -1    0    0  504    0 -0.00000000000E+00 -0.00000000000E+00 -0.90521737467E+03  0.90521737467E+03  0.00000000000E+00 0. -1.
         21    1    1    2  503  505  0.58412201640E+02 -0.35030622191E+02  0.67615835008E+01  0.68445955344E+02  0.00000000000E+00 0. -1.
         21    1    1    2  504  502 -0.17433364497E+02  0.26361780131E+02 -0.43094806346E+01  0.31897292560E+02  0.00000000000E+00 0. -1.
         21    1    1    2  505  501  0.48601071851E+02  0.81872588243E+02  0.34709475126E+01  0.95274510586E+02  0.00000000000E+00 0. -1.
          2    1    1    2  501    0 -0.89579908994E+02 -0.73203746183E+02 -0.80624124357E+03  0.81449879766E+03  0.00000000000E+00 0. -1.
<scales pt_clust_3="56.62463" pt_clust_4="31.60484" pt_clust_5="113.68891" pt_clust_6="14000.00000"></scales>
<clustering>
<clus scale="   31.605">  1  4  2 -1</clus>
<clus scale="   56.625">  1  3  2 -1</clus>
<clus scale="  113.689">  1  5  2 -1</clus>
<clus scale="   31.605">  1  3  2 -1</clus>
</clustering>
</event>
<event>
 6    0  0.6851428E+002  0.1304361E+03  0.7546771E-02  0.1226810E+00
          2   -1    0    0  503    0 -0.00000000000E+00  0.00000000000E+00  0.15625406145E+04  0.15625406145E+04  0.00000000000E+00 0. -1.
         21   -1    0    0  505  502  0.00000000000E+00 -0.00000000000E+00 -0.22018208205E+03  0.22018208205E+03  0.00000000000E+00 0. -1.
         21    1    1    2  503  502 -0.57033757925E+02  0.58771508974E+02 -0.16621837914E+03  0.18529837931E+03  0.00000000000E+00 0. -1.
         21    1    1    2  504  501 -0.51724600443E+02 -0.19616825200E+02  0.57807277370E+00  0.55322583906E+02  0.00000000000E+00 0. -1.
         21    1    1    2  505  504 -0.27435893607E+01  0.30109043501E+02  0.18998259016E+01  0.30293417133E+02  0.00000000000E+00 0. -1.
          2    1    1    2  501    0  0.11150194773E+03 -0.69263727275E+02  0.15060990129E+04  0.15118083162E+04  0.00000000000E+00 0. -1.
<scales pt_clust_3="130.43609" pt_clust_4="54.37955" pt_clust_5="30.23379" pt_clust_6="14000.00000"></scales>
<clustering>
<clus scale="   30.234">  2  5  1 -1</clus>
<clus scale="   54.380">  2  4  1 -1</clus>
<clus scale="  130.436">  2  3  1 -1</clus>
<clus scale="   30.234">  2  3  1 -1</clus>
</clustering>
</event>
<event>
 6    0  0.6851428E+002  0.3664453E+03  0.7546771E-02  0.1056061E+00
         21   -1    0    0  504  502  0.00000000000E+00  0.00000000000E+00  0.13074277466E+04  0.13074277466E+04  0.00000000000E+00 0. -1.
         -4   -1    0    0    0  501 -0.00000000000E+00 -0.00000000000E+00 -0.18743980309E+03  0.18743980309E+03  0.00000000000E+00 0. -1.
         21    1    1    2  503  502 -0.35648991875E+02  0.14842346125E+02  0.52328162449E+03  0.52470449245E+03  0.00000000000E+00 0. -1.
         21    1    1    2  504  505 -0.10995770493E+03  0.14911021680E+03  0.33100793372E+03  0.37932941596E+03  0.00000000000E+00 0. -1.
         21    1    1    2  505  501 -0.15178338913E+03  0.68346264225E+01  0.18338976544E+03  0.23815271445E+03  0.00000000000E+00 0. -1.
         -4    1    1    2    0  503  0.29739008593E+03 -0.17078718935E+03  0.82308619868E+02  0.35268092685E+03  0.00000000000E+00 0. -1.
<scales pt_clust_3="38.61536" pt_clust_4="138.71797" pt_clust_5="138.71797" pt_clust_6="332.31040"></scales>
<clustering>
<clus scale="   38.615">  1  3  2 -1</clus>
<clus scale="  138.718">  4  5 -1 -1</clus>
<clus scale="  332.310">  2  6  1 -1</clus>
<clus scale="   38.615">  1  3  2 -1</clus>
</clustering>
</event>
<event>
 6    0  0.6851428E+002  0.1986271E+03  0.7546771E-02  0.1150902E+00
         21   -1    0    0  505  502  0.00000000000E+00  0.00000000000E+00  0.32737213109E+02  0.32737213109E+02  0.00000000000E+00 0. -1.
          2   -1    0    0  503    0 -0.00000000000E+00 -0.00000000000E+00 -0.41125637637E+04  0.41125637637E+04  0.00000000000E+00 0. -1.
         21    1    1    2  503  504  0.11919353840E+03  0.12501419149E+02 -0.22984979736E+03  0.25921866141E+03  0.00000000000E+00 0. -1.
         21    1    1    2  504  502  0.43648688009E+02 -0.24251574170E+02 -0.12685545550E+03  0.13632920965E+03  0.00000000000E+00 0. -1.
         21    1    1    2  505  501  0.33034660212E+02  0.73999035018E+01 -0.15975381014E+02  0.37433409485E+02  0.00000000000E+00 0. -1.
          2    1    1    2  501    0 -0.19587688662E+03  0.43502515190E+01 -0.37071459167E+04  0.37123196963E+04  0.00000000000E+00 0. -1.
<scales pt_clust_3="32.68328" pt_clust_4="32.68328" pt_clust_5="33.85332" pt_clust_6="192.06487"></scales>
<clustering>
<clus scale="   32.683">  3  4 -1 -1</clus>
<clus scale="   33.853">  1  5  2 -1</clus>
<clus scale="  192.065">  2  6  1 -1</clus>
<clus scale="   33.853">  1  3  2 -1</clus>
</clustering>
</event>
<event>
 6    0  0.6851428E+002  0.9134980E+02  0.7546771E-02  0.1299615E+00
         21   -1    0    0  504  502  0.00000000000E+00  0.00000000000E+00  0.78952706703E+03  0.78952706703E+03  0.00000000000E+00 0.  1.
          2   -1    0    0  502    0 -0.00000000000E+00 -0.00000000000E+00 -0.18673317028E+04  0.18673317028E+04  0.00000000000E+00 0. -1.
         21    1    1    2  503  501  0.48550688298E+02 -0.62050833562E+01 -0.83532185125E+02  0.96815795950E+02  0.00000000000E+00 0.  1.
         21    1    1    2  504  505 -0.90731819853E+02 -0.11515124993E+02  0.77420318688E+03  0.77958670833E+03  0.00000000000E+00 0.  1.
         21    1    1    2  505  503  0.73567074716E+02  0.42792823610E+02 -0.31122483157E+03  0.32265188055E+03  0.00000000000E+00 0.  1.
          2    1    1    2  501    0 -0.31385943161E+02 -0.25072615261E+02 -0.14572508060E+04  0.14578043850E+04  0.00000000000E+00 0. -1.
<scales pt_clust_3="43.26280" pt_clust_4="14000.00000" pt_clust_5="91.34980" pt_clust_6="40.17105"></scales>
<clustering>
<clus scale="   40.171">  2  6  1 -1</clus>
<clus scale="   43.263">  2  3  1 -1</clus>
<clus scale="   91.350">  2  5  1 -1</clus>
<clus scale="   91.350">  1  3  2 -1</clus>
</clustering>
</event>
<event>
 6    0  0.6851428E+002  0.1119047E+03  0.7546771E-02  0.1257083E+00
          2   -1    0    0  503    0 -0.00000000000E+00  0.00000000000E+00  0.11852181063E+03  0.11852181063E+03  0.00000000000E+00 0. -1.
         21   -1    0    0  505  502  0.00000000000E+00 -0.00000000000E+00 -0.55099592422E+03  0.55099592422E+03  0.00000000000E+00 0. -1.
         21    1    1    2  503  504  0.50976196644E+02  0.55283646630E+02 -0.21422157655E+03  0.22703686500E+03  0.00000000000E+00 0. -1.
         21    1    1    2  504  502  0.10998754194E+02  0.50381210318E+02 -0.23381761204E+03  0.23943666103E+03  0.00000000000E+00 0. -1.
         21    1    1    2  505  501  0.71377077357E+01 -0.30113562824E+02 -0.65501275725E+02  0.72444397018E+02  0.00000000000E+00 0. -1.
          2    1    1    2  501    0 -0.69112658574E+02 -0.75551294124E+02  0.81066350728E+02  0.13059981179E+03  0.00000000000E+00 0. -1.
<scales pt_clust_3="32.28941" pt_clust_4="32.28941" pt_clust_5="30.94792" pt_clust_6="103.29660"></scales>
<clustering>
<clus scale="   30.948">  2  5  1 -1</clus>
<clus scale="   32.289">  3  4 -1 -1</clus>
<clus scale="  103.297">  1  6  2 -1</clus>
<clus scale="   30.948">  2  3  1 -1</clus>
</clustering>
</event>
<event>
 6    0  0.6851428E+002  0.1766979E+03  0.7546771E-02  0.1171038E+00
          2   -1    0    0  505    0 -0.00000000000E+00  0.00000000000E+00  0.17509240075E+04  0.17509240075E+04  0.00000000000E+00 0. -1.
         21   -1    0    0  504  502  0.00000000000E+00 -0.00000000000E+00 -0.84392319698E+02  0.84392319698E+02  0.00000000000E+00 0. -1.
         21    1    1    2  503  501 -0.65322477156E+02 -0.15473772074E+03  0.38305257751E+03  0.41825837156E+03  0.00000000000E+00 0. -1.
         21    1    1    2  504  503  0.11837233850E+03  0.98555231241E+02  0.49323261482E+02  0.16173412828E+03  0.00000000000E+00 0. -1.
         21    1    1    2  505  502  0.42036032610E+02  0.45455063497E+02  0.10334421382E+03  0.12047081541E+03  0.00000000000E+00 0. -1.
          2    1    1    2  501    0 -0.95085893957E+02  0.10727426006E+02  0.11308116350E+04  0.11348530119E+04  0.00000000000E+00 0. -1.
<scales pt_clust_3="14000.00000" pt_clust_4="176.69792" pt_clust_5="61.91277" pt_clust_6="94.72111"></scales>
<clustering>
<clus scale="   61.913">  2  5  1 -1</clus>
<clus scale="   94.721">  1  6  2 -1</clus>
<clus scale="  176.698">  2  4  1 -1</clus>
<clus scale="   61.913">  2  3  1 -1</clus>
</clustering>
</event>
<event>
 6    0  0.6851428E+002  0.1002556E+03  0.7546771E-02  0.1279759E+00
          1   -1    0    0  504    0 -0.00000000000E+00  0.00000000000E+00  0.14196535824E+03  0.14196535824E+03  0.00000000000E+00 0. -1.
         21   -1    0    0  503  502  0.00000000000E+00 -0.00000000000E+00 -0.51031499256E+03  0.51031499256E+03  0.00000000000E+00 0. -1.
         21    1    1    2  503  505 -0.51992180221E+02  0.11572343503E+03 -0.18067322362E+03  0.22076665045E+03  0.00000000000E+00 0. -1.
         21    1    1    2  504  502  0.33861444559E+02 -0.95445890465E+01 -0.22781922963E+03  0.23051962606E+03  0.00000000000E+00 0. -1.
         21    1    1    2  505  501  0.26782527913E+02 -0.73603327377E+02 -0.57846394951E+02  0.97370216243E+02  0.00000000000E+00 0.  1.
          1    1    1    2  501    0 -0.86517922511E+01 -0.32575518601E+02  0.97989213877E+02  0.10362385805E+03  0.00000000000E+00 0. -1.
<scales pt_clust_3="14000.00000" pt_clust_4="35.21502" pt_clust_5="100.25556" pt_clust_6="33.70486"></scales>
<clustering>
<clus scale="   33.705">  1  6  2 -1</clus>
<clus scale="   35.215">  2  4  1 -1</clus>
<clus scale="  100.256">  1  5  2 -1</clus>
<clus scale="   35.215">  2  3  1 -1</clus>
</clustering>
</event>
<event>
 6    0  0.6851428E+002  0.2754441E+03  0.7546771E-02  0.1098204E+00
         21   -1    0    0  503  502  0.00000000000E+00  0.00000000000E+00  0.97077813526E+02  0.97077813526E+02  0.00000000000E+00 0.  1.
          2   -1    0    0  502    0 -0.00000000000E+00 -0.00000000000E+00 -0.32996794133E+04  0.32996794133E+04  0.00000000000E+00 0. -1.
         21    1    1    2  503  504  0.19434495546E+03 -0.16236575301E+03 -0.19669762172E+03  0.32065956067E+03  0.00000000000E+00 0.  1.
         21    1    1    2  504  505  0.17966708975E+02 -0.29062137005E+02  0.64930690364E+01  0.34778878421E+02  0.00000000000E+00 0.  1.
         21    1    1    2  505  501 -0.15654738619E+03  0.11409968325E+03 -0.68215101225E+03  0.70912327938E+03  0.00000000000E+00 0.  1.
          2    1    1    2  501    0 -0.55764278242E+02  0.77328206765E+02 -0.23302460349E+04  0.23321955084E+04  0.00000000000E+00 0. -1.
<scales pt_clust_3="33.74051" pt_clust_4="33.74051" pt_clust_5="259.67599" pt_clust_6="95.33785"></scales>
<clustering>
<clus scale="   33.741">  3  4 -1 -1</clus>
<clus scale="   95.338">  2  6  1 -1</clus>
<clus scale="  259.676">  2  5  1 -1</clus>
<clus scale="  275.444">  1  3  2 -1</clus>
</clustering>
</event>
<event>
 6    0  0.6851428E+002  0.1217741E+03  0.7546771E-02  0.1240199E+00
         21   -1    0    0  505  502  0.00000000000E+00  0.00000000000E+00  0.28307656841E+02  0.28307656841E+02  0.00000000000E+00 0. -1.
          2   -1    0    0  503    0 -0.00000000000E+00 -0.00000000000E+00 -0.19693454787E+04  0.19693454787E+04  0.00000000000E+00 0.  1.
         21    1    1    2  503  504 -0.38386005535E+01 -0.12505478352E+03 -0.30274656635E+03  0.32758039803E+03  0.00000000000E+00 0. -1.
         21    1    1    2  504  502  0.17811008045E+02 -0.24748974908E+02 -0.23904637386E+02  0.38745005551E+02  0.00000000000E+00 0. -1.
         21    1    1    2  505  501 -0.28771648874E+02  0.11373455245E+03 -0.41382131372E+03  0.43012955710E+03  0.00000000000E+00 0. -1.
          2    1    1    2  501    0  0.14799241383E+02  0.36069205981E+02 -0.12005653044E+04  0.12011981749E+04  0.00000000000E+00 0.  1.
<scales pt_clust_3="121.77409" pt_clust_4="30.49170" pt_clust_5="14000.00000" pt_clust_6="38.74478"></scales>
<clustering>
<clus scale="   30.492">  1  4  2 -1</clus>
<clus scale="   38.745">  2  6  1 -1</clus>
<clus scale="  121.774">  2  3  1 -1</clus>
<clus scale="   30.492">  1  3  2 -1</clus>
</clustering>
</event>
<event>
 6    0  0.6851428E+002  0.1520189E+03  0.7546771E-02  0.1198014E+00
         21   -1    0    0  503  502  0.00000000000E+00  0.00000000000E+00  0.93334121780E+02  0.93334121780E+02  0.00000000000E+00 0.  1.
          2   -1    0    0  505    0 -0.00000000000E+00 -0.00000000000E+00 -0.19027449090E+04  0.19027449090E+04  0.00000000000E+00 0.  1.
         21    1    1    2  503  501  0.14395913815E+02 -0.31247563646E+02  0.18314349658E+02  0.38975222537E+02  0.00000000000E+00 0.  1.
         21    1    1    2  504  502 -0.52180553957E+02  0.60304786257E+02 -0.18757552265E+02  0.81922666117E+02  0.00000000000E+00 0.  1.
         21    1    1    2  505  504 -0.86592807140E+02  0.46434081174E+02 -0.50075008327E+02  0.11028120693E+03  0.00000000000E+00 0.  1.
          2    1    1    2  501    0  0.12437744728E+03 -0.75491303785E+02 -0.17588925763E+04  0.17648999352E+04  0.00000000000E+00 0.  1.
<scales pt_clust_3="34.40425" pt_clust_4="33.93509" pt_clust_5="33.93509" pt_clust_6="146.82158"></scales>
<clustering>
<clus scale="   34.404">  1  3  2 -1</clus>
<clus scale="   33.935">  4  5 -1 -1</clus>
<clus scale="  146.822">  2  6  1 -1</clus>
<clus scale="   34.404">  1  3  2 -1</clus>
</clustering>
</event>
<event>
 6    0  0.6851428E+002  0.1106181E+03  0.7546771E-02  0.1259430E+00
         21   -1    0    0  505  502  0.00000000000E+00  0.00000000000E+00  0.77199479824E+03  0.77199479824E+03  0.00000000000E+00 0.  1.
          1   -1    0    0  503    0 -0.00000000000E+00 -0.00000000000E+00 -0.56481094276E+03  0.56481094276E+03  0.00000000000E+00 0. -1.
         21    1    1    2  503  502 -0.42231785279E+02  0.84614469635E+02  0.51678453824E+03  0.52536595924E+03  0.00000000000E+00 0.  1.
         21    1    1    2  504  501  0.13462181453E+02 -0.82107776988E+02  0.10956684520E+03  0.13757838107E+03  0.00000000000E+00 0.  1.
         21    1    1    2  505  504  0.20708663400E+02 -0.36832559671E+02  0.12325354608E+03  0.13029552108E+03  0.00000000000E+00 0.  1.
          1    1    1    2  501    0  0.80609404260E+01  0.34325867024E+02 -0.54242107404E+03  0.54356587961E+03  0.00000000000E+00 0. -1.
<scales pt_clust_3="99.99862" pt_clust_4="33.70273" pt_clust_5="33.70273" pt_clust_6="35.25966"></scales>
<clustering>
<clus scale="   33.703">  4  5 -1 -1</clus>
<clus scale="   35.260">  2  6  1 -1</clus>
<clus scale="   99.999">  1  3  2 -1</clus>
<clus scale="   99.999">  1  3  2 -1</clus>
</clustering>
</event>
<event>
 6    0  0.6851428E+002  0.9847572E+02  0.7546771E-02  0.1283534E+00
         21   -1    0    0  504  502  0.00000000000E+00  0.00000000000E+00  0.36572275713E+02  0.36572275713E+02  0.00000000000E+00 0. -1.
          1   -1    0    0  505    0 -0.00000000000E+00 -0.00000000000E+00 -0.95163940928E+03  0.95163940928E+03  0.00000000000E+00 0.  1.
         21    1    1    2  503  502  0.56499338360E+02 -0.29353389451E+02 -0.59365642597E+02  0.87052146604E+02  0.00000000000E+00 0. -1.
         21    1    1    2  504  501 -0.35424604413E+02  0.10563080534E+02 -0.18079259539E+02  0.41150223495E+02  0.00000000000E+00 0.  1.
         21    1    1    2  505  503  0.62182942499E+02 -0.81770430897E+01 -0.10595085442E+03  0.12312256464E+03  0.00000000000E+00 0. -1.
          1    1    1    2  501    0 -0.83257676446E+02  0.26967352006E+02 -0.73167137701E+03  0.73688675025E+03  0.00000000000E+00 0.  1.
<scales pt_clust_3="36.46481" pt_clust_4="36.96595" pt_clust_5="36.46481" pt_clust_6="91.36531"></scales>
<clustering>
<clus scale="   36.465">  3  5 -1 -1</clus>
<clus scale="   36.966">  1  4  2 -1</clus>
<clus scale="   91.365">  2  6  1 -1</clus>
<clus scale="   36.966">  1  3  2 -1</clus>
</clustering>
</event>
<event>
 6    0  0.6851428E+002  0.7694520E+02  0.7546771E-02  0.1337951E+00
         21   -1    0    0  505  502  0.00000000000E+00  0.00000000000E+00  0.13826229008E+03  0.13826229008E+03  0.00000000000E+00 0. -1.
          1   -1    0    0  503    0 -0.00000000000E+00 -0.00000000000E+00 -0.11723637023E+04  0.11723637023E+04  0.00000000000E+00 0. -1.
         21    1    1    2  503  502  0.23581297276E+02 -0.22252170404E+02  0.97687132379E+02  0.10292721944E+03  0.00000000000E+00 0. -1.
         21    1    1    2  504  501  0.76833049856E+02  0.80832109342E+02 -0.21019217519E+03  0.23794515747E+03  0.00000000000E+00 0. -1.
         21    1    1    2  505  504 -0.78422116622E+02 -0.12288201831E+02 -0.44187281190E+02  0.90849018149E+02  0.00000000000E+00 0. -1.
          1    1    1    2  501    0 -0.21992230510E+02 -0.46291737107E+02 -0.87740908823E+03  0.87890459734E+03  0.00000000000E+00 0. -1.
<scales pt_clust_3="32.42278" pt_clust_4="14000.00000" pt_clust_5="76.94520" pt_clust_6="51.45041"></scales>
<clustering>
<clus scale="   32.423">  1  3  2 -1</clus>
<clus scale="   51.450">  2  6  1 -1</clus>
<clus scale="   76.945">  1  5  2 -1</clus>
<clus scale="   32.423">  1  3  2 -1</clus>
</clustering>
</event>
<event>
 6    0  0.6851428E+002  0.2310608E+03  0.7546771E-02  0.1125895E+00
         21   -1    0    0  501  502  0.00000000000E+00  0.00000000000E+00  0.24595530845E+03  0.24595530845E+03  0.00000000000E+00 0.  1.
          2   -1    0    0  503    0 -0.00000000000E+00 -0.00000000000E+00 -0.10627132447E+04  0.10627132447E+04  0.00000000000E+00 0.  1.
         21    1    1    2  503  504  0.13709697417E+03  0.16271713235E+03 -0.89524385992E+02  0.23083990377E+03  0.00000000000E+00 0. -1.
         21    1    1    2  504  505 -0.72473179500E+02 -0.83813946006E+02  0.58401342951E+02  0.12525117225E+03  0.00000000000E+00 0.  1.
         21    1    1    2  505  502 -0.51779057055E+02 -0.11533154125E+03  0.34886915640E+02  0.13114698639E+03  0.00000000000E+00 0.  1.
          2    1    1    2  501    0 -0.12844737611E+02  0.36428354907E+02 -0.82052180882E+03  0.82143049072E+03  0.00000000000E+00 0.  1.
<scales pt_clust_3="226.82439" pt_clust_4="41.66384" pt_clust_5="41.66384" pt_clust_6="38.62658"></scales>
<clustering>
<clus scale="   38.627">  2  6  1 -1</clus>
<clus scale="   41.664">  4  5 -1 -1</clus>
<clus scale="  226.824">  2  3  1 -1</clus>
<clus scale="  231.061">  1  3  2 -1</clus>
</clustering>
</event>
<event>
 6    0  0.6851428E+002  0.1168687E+03  0.7546771E-02  0.1248354E+00
         21   -1    0    0  504  502  0.00000000000E+00  0.00000000000E+00  0.84485466929E+03  0.84485466929E+03  0.00000000000E+00 0. -1.
         -4   -1    0    0    0  501 -0.00000000000E+00 -0.00000000000E+00 -0.40195828373E+02  0.40195828373E+02  0.00000000000E+00 0. -1.
         21    1    1    2  503  501 -0.24853815508E+02 -0.62045018789E+02  0.56243311451E+02  0.87353343295E+02  0.00000000000E+00 0. -1.
         21    1    1    2  504  503  0.11789812028E+03 -0.33798238983E+02  0.27498922165E+03  0.30110024867E+03  0.00000000000E+00 0. -1.
         21    1    1    2  505  502  0.17546179620E+01  0.34861836615E+02  0.15272685123E+03  0.15666498467E+03  0.00000000000E+00 0.  1.
         -4    1    1    2    0  505 -0.94798922734E+02  0.60981421156E+02  0.32069945659E+03  0.33993192103E+03  0.00000000000E+00 0. -1.
<scales pt_clust_3="63.41426" pt_clust_4="116.86866" pt_clust_5="34.90596" pt_clust_6="14000.00000"></scales>
<clustering>
<clus scale="   34.906">  1  5  2 -1</clus>
<clus scale="   63.414">  2  3  1 -1</clus>
<clus scale="  116.869">  2  4  1 -1</clus>
<clus scale="   34.906">  1  3  2 -1</clus>
</clustering>
</event>
<event>
 6    0  0.6851428E+002  0.1487780E+03  0.7546771E-02  0.1201983E+00
          2   -1    0    0  505    0 -0.00000000000E+00  0.00000000000E+00  0.62653577409E+02  0.62653577409E+02  0.00000000000E+00 0. -1.
         21   -1    0    0  503  502  0.00000000000E+00 -0.00000000000E+00 -0.97250865816E+03  0.97250865816E+03  0.00000000000E+00 0. -1.
         21    1    1    2  503  504  0.22110487640E+02 -0.31165660549E+02 -0.24270077594E+03  0.24569053442E+03  0.00000000000E+00 0.  1.
         21    1    1    2  504  501  0.13002543653E+03  0.10289133109E+01 -0.52167639240E+03  0.53763736031E+03  0.00000000000E+00 0. -1.
         21    1    1    2  505  502 -0.15932729914E+03  0.69477451447E+00 -0.15268997523E+03  0.22068053720E+03  0.00000000000E+00 0. -1.
          2    1    1    2  501    0  0.71913749678E+01  0.29441972724E+02  0.72120628159E+01  0.31153803650E+02  0.00000000000E+00 0. -1.
<scales pt_clust_3="37.53780" pt_clust_4="14000.00000" pt_clust_5="148.77795" pt_clust_6="30.30752"></scales>
<clustering>
<clus scale="   30.308">  1  6  2 -1</clus>
<clus scale="   37.538">  2  3  1 -1</clus>
<clus scale="  148.778">  1  5  2 -1</clus>
<clus scale="   37.538">  2  3  1 -1</clus>
</clustering>
</event>
<event>
 6    0  0.6851428E+002  0.1236544E+03  0.7546771E-02  0.1237187E+00
         21   -1    0    0  503  502  0.00000000000E+00  0.00000000000E+00  0.31387738530E+03  0.31387738530E+03  0.00000000000E+00 0. -1.
         -3   -1    0    0    0  501 -0.00000000000E+00 -0.00000000000E+00 -0.24112625552E+04  0.24112625552E+04  0.00000000000E+00 0. -1.
         21    1    1    2  503  505  0.70779378408E+01 -0.89122553121E+02  0.17660946887E+03  0.19794906206E+03  0.00000000000E+00 0. -1.
         21    1    1    2  504  502  0.71744869863E+01 -0.32384892618E+02 -0.30963433427E+01  0.33314289359E+02  0.00000000000E+00 0.  1.
         21    1    1    2  505  501  0.34196257841E+01  0.16185608558E+03  0.52399631108E+02  0.17016112252E+03  0.00000000000E+00 0. -1.
         -3    1    1    2    0  504 -0.17672050611E+02 -0.40348639836E+02 -0.23232979265E+04  0.23237154665E+04  0.00000000000E+00 0. -1.
<scales pt_clust_3="123.65441" pt_clust_4="33.17008" pt_clust_5="14000.00000" pt_clust_6="44.06772"></scales>
<clustering>
<clus scale="   33.170">  1  4  2 -1</clus>
<clus scale="   44.068">  2  6  1 -1</clus>
<clus scale="  123.654">  1  3  2 -1</clus>
<clus scale="   33.170">  1  3  2 -1</clus>
</clustering>
</event>
<event>
 6    0  0.6851428E+002  0.1049361E+03  0.7546771E-02  0.1270246E+00
         21   -1    0    0  503  502  0.00000000000E+00  0.00000000000E+00  0.26761140193E+02  0.26761140193E+02  0.00000000000E+00 0.  1.
         -4   -1    0    0    0  501 -0.00000000000E+00 -0.00000000000E+00 -0.20157175780E+04  0.20157175780E+04  0.00000000000E+00 0.  1.
         21    1    1    2  503  505  0.10644290111E+02  0.42416917162E+02 -0.74023817989E+02  0.85976865512E+02  0.00000000000E+00 0.  1.
         21    1    1    2  504  501 -0.13845126207E+02 -0.12203504537E+03 -0.98154393656E+03  0.98919802832E+03  0.00000000000E+00 0.  1.
         21    1    1    2  505  504  0.20476705296E+02  0.44434633465E+02 -0.19649177346E+02  0.52724019965E+02  0.00000000000E+00 0.  1.
         -4    1    1    2    0  502 -0.17275869200E+02  0.35183494747E+02 -0.91373950587E+03  0.91457980437E+03  0.00000000000E+00 0.  1.
<scales pt_clust_3="42.45332" pt_clust_4="95.18400" pt_clust_5="42.45332" pt_clust_6="39.19610"></scales>
<clustering>
<clus scale="   39.196">  2  6  1 -1</clus>
<clus scale="   42.453">  3  5 -1 -1</clus>
<clus scale="   95.184">  2  4  1 -1</clus>
<clus scale="  104.936">  1  3  2 -1</clus>
</clustering>
</event>
<event>
 6    0  0.6851428E+002  0.7844129E+02  0.7546771E-02  0.1333534E+00
         21   -1    0    0  505  502  0.00000000000E+00  0.00000000000E+00  0.27948260399E+03  0.27948260399E+03  0.00000000000E+00 0.  1.
          3   -1    0    0  503    0 -0.00000000000E+00 -0.00000000000E+00 -0.63037565619E+03  0.63037565619E+03  0.00000000000E+00 0.  1.
         21    1    1    2  503  504  0.20173701936E+02  0.24822352012E+02 -0.22290628264E+02  0.38987171193E+02  0.00000000000E+00 0.  1.
         21    1    1    2  504  502  0.86591734738E+02  0.32477118013E+02  0.14548274766E+03  0.17238944743E+03  0.00000000000E+00 0.  1.
         21    1    1    2  505  501 -0.38905763239E+02 -0.62932764426E+02  0.97757084087E+02  0.12259950547E+03  0.00000000000E+00 0.  1.
          3    1    1    2  501    0 -0.67859673435E+02  0.56332944005E+01 -0.57184225568E+03  0.57588213609E+03  0.00000000000E+00 0.  1.
<scales pt_clust_3="31.98636" pt_clust_4="14000.00000" pt_clust_5="78.44129" pt_clust_6="56.75544"></scales>
<clustering>
<clus scale="   31.986">  2  3  1 -1</clus>
<clus scale="   56.755">  2  6  1 -1</clus>
<clus scale="   78.441">  1  5  2 -1</clus>
<clus scale="   78.441">  1  3  2 -1</clus>
</clustering>
</event>
<event>
 6    0  0.6851428E+002  0.1096580E+03  0.7546771E-02  0.1261205E+00
         21   -1    0    0  503  502  0.00000000000E+00  0.00000000000E+00  0.11451240870E+04  0.11451240870E+04  0.00000000000E+00 0. -1.
          2   -1    0    0  505    0 -0.00000000000E+00 -0.00000000000E+00 -0.42345819654E+03  0.42345819654E+03  0.00000000000E+00 0. -1.
         21    1    1    2  503  501 -0.40261373012E+02 -0.28924529848E+02  0.48172034542E+02  0.69124174466E+02  0.00000000000E+00 0. -1.
         21    1    1    2  504  502 -0.54612216978E+01  0.12355308900E+03  0.83613454505E+03  0.84523142877E+03  0.00000000000E+00 0. -1.
         21    1    1    2  505  504 -0.63843331685E+01 -0.11258910795E+03  0.23083571974E+03  0.25690892636E+03  0.00000000000E+00 0. -1.
          2    1    1    2  501    0  0.52106927878E+02  0.17960548798E+02 -0.39347640888E+03  0.39731775393E+03  0.00000000000E+00 0. -1.
<scales pt_clust_3="49.57425" pt_clust_4="14000.00000" pt_clust_5="109.65800" pt_clust_6="55.03151"></scales>
<clustering>
<clus scale="   49.574">  1  3  2 -1</clus>
<clus scale="   55.032">  2  6  1 -1</clus>
<clus scale="  109.658">  2  5  1 -1</clus>
<clus scale="   49.574">  1  3  2 -1</clus>
</clustering>
</event>
<event>
 6    0  0.6851428E+002  0.1345677E+03  0.7546771E-02  0.1220831E+00
          2   -1    0    0  503    0 -0.00000000000E+00  0.00000000000E+00  0.14174122114E+04  0.14174122114E+04  0.00000000000E+00 0.  1.
         21   -1    0    0  505  502  0.00000000000E+00 -0.00000000000E+00 -0.13729072891E+03  0.13729072891E+03  0.00000000000E+00 0.  1.
         21    1    1    2  503  504 -0.17473034124E+02 -0.12545093626E+03  0.18537624997E+03  0.22451636551E+03  0.00000000000E+00 0.  1.
         21    1    1    2  504  502 -0.38480084025E+02  0.57082912291E+02 -0.19557970211E+02  0.71565983127E+02  0.00000000000E+00 0.  1.
         21    1    1    2  505  501  0.15257665295E+03  0.53552676284E+02  0.23446716265E+02  0.16339300067E+03  0.00000000000E+00 0.  1.
          2    1    1    2  501    0 -0.96623534805E+02  0.14815347685E+02  0.10908564865E+04  0.10952275910E+04  0.00000000000E+00 0.  1.
<scales pt_clust_3="134.56774" pt_clust_4="68.84167" pt_clust_5="14000.00000" pt_clust_6="98.87248"></scales>
<clustering>
<clus scale="   68.842">  2  4  1 -1</clus>
<clus scale="   98.872">  1  6  2 -1</clus>
<clus scale="  134.568">  1  3  2 -1</clus>
<clus scale="   68.842">  2  3  1 -1</clus>
</clustering>
</event>
<event>
 6    0  0.6851428E+002  0.8269326E+02  0.7546771E-02  0.1321578E+00
         21   -1    0    0  505  502  0.00000000000E+00  0.00000000000E+00  0.20768120340E+02  0.20768120340E+02  0.00000000000E+00 0. -1.
          1   -1    0    0  504    0 -0.00000000000E+00 -0.00000000000E+00 -0.19006017447E+04  0.19006017447E+04  0.00000000000E+00 0.  1.
         21    1    1    2  503  502  0.26102063943E+02 -0.19889208875E+02 -0.22125571700E+02  0.39578267961E+02  0.00000000000E+00 0. -1.
         21    1    1    2  504  503  0.33403395826E+02 -0.49491294473E+02 -0.84384420154E+03  0.84595402449E+03  0.00000000000E+00 0. -1.
         21    1    1    2  505  501 -0.50195521494E+02 -0.54280397876E+02 -0.21384985639E+03  0.22626911643E+03  0.00000000000E+00 0. -1.
          1    1    1    2  501    0 -0.93099382746E+01  0.12366090122E+03 -0.80001399473E+03  0.80956845616E+03  0.00000000000E+00 0.  1.
<scales pt_clust_3="32.81613" pt_clust_4="62.43932" pt_clust_5="82.69326" pt_clust_6="14000.00000"></scales>
<clustering>
<clus scale="   32.816">  1  3  2 -1</clus>
<clus scale="   62.439">  2  4  1 -1</clus>
<clus scale="   82.693">  1  5  2 -1</clus>
<clus scale="   32.816">  1  3  2 -1</clus>
</clustering>
</event>
<event>
 6    0  0.6851428E+002  0.8317493E+02  0.7546771E-02  0.1320275E+00
          2   -1    0    0  504    0 -0.00000000000E+00  0.00000000000E+00  0.37628390826E+04  0.37628390826E+04  0.00000000000E+00 0.  1.
         21   -1    0    0  501  502  0.00000000000E+00 -0.00000000000E+00 -0.60862153164E+02  0.60862153164E+02  0.00000000000E+00 0. -1.
         21    1    1    2  503  505 -0.70207875927E+02  0.41718283260E+02  0.59216065613E+03  0.59776567622E+03  0.00000000000E+00 0.  1.
         21    1    1    2  504  503  0.61436704391E+01 -0.68501481693E+02  0.23545107303E+04  0.23555150130E+04  0.00000000000E+00 0.  1.
         21    1    1    2  505  502  0.27293583742E+02  0.54417324517E+02 -0.40607871183E+02  0.73179123547E+02  0.00000000000E+00 0. -1.
          2    1    1    2  501    0  0.36770621746E+02 -0.27634126084E+02  0.79591341427E+03  0.79724142301E+03  0.00000000000E+00 0.  1.
<scales pt_clust_3="14000.00000" pt_clust_4="83.17493" pt_clust_5="60.83384" pt_clust_6="45.99699"></scales>
<clustering>
<clus scale="   45.997">  1  6  2 -1</clus>
<clus scale="   60.834">  2  5  1 -1</clus>
<clus scale="   83.175">  1  4  2 -1</clus>
<clus scale="   60.834">  2  3  1 -1</clus>
</clustering>
</event>
<event>
 6    0  0.6851428E+002  0.9783821E+02  0.7546771E-02  0.1284909E+00
          2   -1    0    0  504    0 -0.00000000000E+00  0.00000000000E+00  0.19864638457E+04  0.19864638457E+04  0.00000000000E+00 0. -1.
         21   -1    0    0  501  502  0.00000000000E+00 -0.00000000000E+00 -0.30551745622E+02  0.30551745622E+02  0.00000000000E+00 0.  1.
         21    1    1    2  503  502 -0.76166163826E+02  0.79526061706E+01  0.76572703738E+02  0.10829546350E+03  0.00000000000E+00 0.  1.
         21    1    1    2  504  505  0.11257382038E+03  0.15725587385E+02  0.34298004776E+03  0.36132460793E+03  0.00000000000E+00 0.  1.
         21    1    1    2  505  503  0.43114303303E+02 -0.23742202437E+02  0.13350115628E+03  0.14228525593E+03  0.00000000000E+00 0.  1.
          2    1    1    2  501    0 -0.79521959861E+02  0.64008881805E-01  0.14028581923E+04  0.14051102640E+04  0.00000000000E+00 0. -1.
<scales pt_clust_3="76.58021" pt_clust_4="31.45872" pt_clust_5="31.45872" pt_clust_6="85.36285"></scales>
<clustering>
<clus scale="   31.459">  4  5 -1 -1</clus>
<clus scale="   76.580">  2  3  1 -1</clus>
<clus scale="   85.363">  1  6  2 -1</clus>
<clus scale="   76.580">  2  3  1 -1</clus>
</clustering>
</event>
<event>
 6    0  0.6851428E+002  0.3103840E+03  0.7546771E-02  0.1080162E+00
          1   -1    0    0  504    0 -0.00000000000E+00  0.00000000000E+00  0.30107876920E+04  0.30107876920E+04  0.00000000000E+00 0. -1.
         21   -1    0    0  503  502  0.00000000000E+00 -0.00000000000E+00 -0.88236382259E+02  0.88236382259E+02  0.00000000000E+00 0. -1.
         21    1    1    2  503  501 -0.52189623212E+02 -0.11251160557E+02 -0.48560321653E+01  0.53609014478E+02  0.00000000000E+00 0. -1.
         21    1    1    2  504  505  0.28173082150E+03  0.15241725611E+03  0.57061490220E+03  0.65437347315E+03  0.00000000000E+00 0. -1.
         21    1    1    2  505  502  0.61390378470E+01  0.59058793592E+02  0.13050027674E+03  0.14337346727E+03  0.00000000000E+00 0. -1.
          1    1    1    2  501    0 -0.23568023614E+03 -0.20022488915E+03  0.22262921629E+04  0.22476681193E+04  0.00000000000E+00 0. -1.
<scales pt_clust_3="53.38863" pt_clust_4="310.38397" pt_clust_5="57.83315" pt_clust_6="14000.00000"></scales>
<clustering>
<clus scale="   53.389">  2  3  1 -1</clus>
<clus scale="   57.833">  2  5  1 -1</clus>
<clus scale="  310.384">  2  4  1 -1</clus>
<clus scale="   53.389">  2  3  1 -1</clus>
</clustering>
</event>
<event>
 6    0  0.6851428E+002  0.2460033E+03  0.7546771E-02  0.1115857E+00
          2   -1    0    0  504    0 -0.00000000000E+00  0.00000000000E+00  0.44623591805E+03  0.44623591805E+03  0.00000000000E+00 0. -1.
         21   -1    0    0  505  502  0.00000000000E+00 -0.00000000000E+00 -0.35001908722E+03  0.35001908722E+03  0.00000000000E+00 0. -1.
         21    1    1    2  503  501  0.20036392145E+01 -0.12348536166E+03 -0.93126010638E+02  0.15467741584E+03  0.00000000000E+00 0. -1.
         21    1    1    2  504  502  0.33212092588E+02  0.97499588559E+02  0.22500790952E+02  0.10543006429E+03  0.00000000000E+00 0. -1.
         21    1    1    2  505  503  0.25615041498E+02 -0.13333586829E+03 -0.13372448664E+03  0.19056973121E+03  0.00000000000E+00 0. -1.
          2    1    1    2  501    0 -0.60830773301E+02  0.15932164139E+03  0.30056653716E+03  0.34557779393E+03  0.00000000000E+00 0. -1.
<scales pt_clust_3="30.37777" pt_clust_4="103.00103" pt_clust_5="30.37777" pt_clust_6="243.93256"></scales>
<clustering>
<clus scale="   30.378">  3  5 -1 -1</clus>
<clus scale="  103.001">  1  4  2 -1</clus>
<clus scale="  243.933">  1  6  2 -1</clus>
<clus scale="  246.003">  2  3  1 -1</clus>
</clustering>
</event>
<event>
 6    0  0.6851428E+002  0.2350930E+03  0.7546771E-02  0.1123106E+00
          1   -1    0    0  505    0 -0.00000000000E+00  0.00000000000E+00  0.23375803723E+04  0.23375803723E+04  0.00000000000E+00 0. -1.
         21   -1    0    0  501  502  0.00000000000E+00 -0.00000000000E+00 -0.18049164778E+03  0.18049164778E+03  0.00000000000E+00 0. -1.
         21    1    1    2  503  504  0.38847598577E+02 -0.24728471168E+03  0.30889225463E+03  0.39758431749E+03  0.00000000000E+00 0. -1.
         21    1    1    2  504  502  0.80460467514E+02  0.37751613115E+02 -0.11152657119E+03  0.14260872066E+03  0.00000000000E+00 0. -1.
         21    1    1    2  505  503 -0.40601858813E+02  0.15844779246E+02  0.15258844864E+03  0.15869090279E+03  0.00000000000E+00 0.  1.
          1    1    1    2  501    0 -0.78706207278E+02  0.19368831931E+03  0.18071345925E+04  0.18191880792E+04  0.00000000000E+00 0. -1.
<scales pt_clust_3="14000.00000" pt_clust_4="88.66314" pt_clust_5="43.58403" pt_clust_6="235.09305"></scales>
<clustering>
<clus scale="   43.584">  1  5  2 -1</clus>
<clus scale="   88.663">  2  4  1 -1</clus>
<clus scale="  235.093">  1  6  2 -1</clus>
<clus scale="   88.663">  2  3  1 -1</clus>
</clustering>
</event>
<event>
 6    0  0.6851428E+002  0.1193766E+03  0.7546771E-02  0.1244129E+00
         21   -1    0    0  504  502  0.00000000000E+00  0.00000000000E+00  0.21129824840E+03  0.21129824840E+03  0.00000000000E+00 0.  1.
          1   -1    0    0  503    0 -0.00000000000E+00 -0.00000000000E+00 -0.82381349403E+03  0.82381349403E+03  0.00000000000E+00 0.  1.
         21    1    1    2  503  502  0.20801061574E+02  0.39225841377E+02 -0.32965531033E+03  0.33263189027E+03  0.00000000000E+00 0.  1.
         21    1    1    2  504  505 -0.32291865607E+00 -0.39002900676E+02  0.11459078518E+03  0.12104700982E+03  0.00000000000E+00 0.  1.
         21    1    1    2  505  501  0.46174414246E+02  0.13810120858E+03  0.10051752543E+02  0.14596252283E+03  0.00000000000E+00 0.  1.
          1    1    1    2  501    0 -0.66652557164E+02 -0.13832414928E+03 -0.40750247303E+03  0.43547031951E+03  0.00000000000E+00 0.  1.
<scales pt_clust_3="43.84982" pt_clust_4="39.00424" pt_clust_5="14000.00000" pt_clust_6="119.37662"></scales>
<clustering>
<clus scale="   39.004">  1  4  2 -1</clus>
<clus scale="   43.850">  2  3  1 -1</clus>
<clus scale="  119.377">  2  6  1 -1</clus>
<clus scale="   39.004">  1  3  2 -1</clus>
</clustering>
</event>
<event>
 6    0  0.6851428E+002  0.7624073E+02  0.7546771E-02  0.1340071E+00
         21   -1    0    0  503  502  0.00000000000E+00  0.00000000000E+00  0.62621311241E+03  0.62621311241E+03  0.00000000000E+00 0. -1.
          1   -1    0    0  504    0 -0.00000000000E+00 -0.00000000000E+00 -0.99982912381E+03  0.99982912381E+03  0.00000000000E+00 0. -1.
         21    1    1    2  503  501 -0.15693215548E+02 -0.53396997720E+02  0.50626881021E+01  0.55885124949E+02  0.00000000000E+00 0. -1.
         21    1    1    2  504  505 -0.13511889098E+02  0.10330311194E+03  0.11034056010E+03  0.15175356103E+03  0.00000000000E+00 0. -1.
         21    1    1    2  505  502  0.55334609516E+02 -0.24446502924E+02  0.46237225189E+03  0.46631282401E+03  0.00000000000E+00 0. -1.
          1    1    1    2  501    0 -0.26129504870E+02 -0.25459611299E+02 -0.95139151149E+03  0.95209072623E+03  0.00000000000E+00 0. -1.
<scales pt_clust_3="14000.00000" pt_clust_4="76.24073" pt_clust_5="59.95253" pt_clust_6="36.48209"></scales>
<clustering>
<clus scale="   36.482">  2  6  1 -1</clus>
<clus scale="   59.953">  1  5  2 -1</clus>
<clus scale="   76.241">  1  4  2 -1</clus>
<clus scale="   59.953">  1  3  2 -1</clus>
</clustering>
</event>
<event>
 6    0  0.6851428E+002  0.8751217E+02  0.7546771E-02  0.1308991E+00
         -4   -1    0    0    0  501 -0.00000000000E+00  0.00000000000E+00  0.36374995203E+03  0.36374995203E+03  0.00000000000E+00 0.  1.
         21   -1    0    0  503  502  0.00000000000E+00 -0.00000000000E+00 -0.17623904996E+03  0.17623904996E+03  0.00000000000E+00 0.  1.
         21    1    1    2  503  501  0.66719868363E+01  0.42361944943E+02  0.11584103997E+02  0.44421180231E+02  0.00000000000E+00 0. -1.
         21    1    1    2  504  505 -0.47837669624E+02 -0.10213940919E+03 -0.92477163694E+02  0.14585241633E+03  0.00000000000E+00 0.  1.
         21    1    1    2  505  502 -0.42411227721E+02  0.32323945623E+02 -0.12995702067E+02  0.54885680916E+02  0.00000000000E+00 0.  1.
         -4    1    1    2    0  504  0.83576910509E+02  0.27453518619E+02  0.28139966383E+03  0.29482972452E+03  0.00000000000E+00 0.  1.
<scales pt_clust_3="42.88414" pt_clust_4="87.51217" pt_clust_5="58.20564" pt_clust_6="14000.00000"></scales>
<clustering>
<clus scale="   42.884">  2  3  1 -1</clus>
<clus scale="   58.206">  2  5  1 -1</clus>
<clus scale="   87.512">  2  4  1 -1</clus>
<clus scale="   42.884">  2  3  1 -1</clus>
</clustering>
</event>
<event>
 6    0  0.6851428E+002  0.9573639E+02  0.7546771E-02  0.1289526E+00
         21   -1    0    0  505  502  0.00000000000E+00  0.00000000000E+00  0.12944033011E+03  0.12944033011E+03  0.00000000000E+00 0.  1.
          2   -1    0    0  503    0 -0.00000000000E+00 -0.00000000000E+00 -0.16753021409E+04  0.16753021409E+04  0.00000000000E+00 0.  1.
         21    1    1    2  503  504 -0.93293460737E+01 -0.12073558853E+03 -0.95759216639E+02  0.15438246859E+03  0.00000000000E+00 0.  1.
         21    1    1    2  504  502 -0.10907716565E+01  0.90868369289E+02  0.60467542489E+02  0.10915390059E+03  0.00000000000E+00 0.  1.
         21    1    1    2  505  501 -0.28994487581E+02  0.45340681682E+02 -0.33212577965E+02  0.63241861615E+02  0.00000000000E+00 0.  1.
          2    1    1    2  501    0  0.39414605311E+02 -0.15473462439E+02 -0.14773575587E+04  0.14779642402E+04  0.00000000000E+00 0.  1.
<scales pt_clust_3="14000.00000" pt_clust_4="95.73639" pt_clust_5="45.85961" pt_clust_6="42.34311"></scales>
<clustering>
<clus scale="   42.343">  2  6  1 -1</clus>
<clus scale="   45.860">  2  5  1 -1</clus>
<clus scale="   95.736">  1  4  2 -1</clus>
<clus scale="   95.736">  1  3  2 -1</clus>
</clustering>
</event>
<event>
 6    0  0.6851428E+002  0.1377486E+03  0.7546771E-02  0.1216391E+00
         21   -1    0    0  505  502  0.00000000000E+00  0.00000000000E+00  0.43414628805E+03  0.43414628805E+03  0.00000000000E+00 0.  1.
         -2   -1    0    0    0  501 -0.00000000000E+00 -0.00000000000E+00 -0.30990811335E+03  0.30990811335E+03  0.00000000000E+00 0.  1.
         21    1    1    2  503  502  0.99316507785E+02  0.11002759455E+03  0.17129431812E+03  0.22652060326E+03  0.00000000000E+00 0.  1.
         21    1    1    2  504  503 -0.98255171676E+02 -0.83981820511E+02  0.13788028542E+03  0.18899205815E+03  0.00000000000E+00 0.  1.
         21    1    1    2  505  501 -0.43615545675E+02  0.20364931132E+02  0.59266489078E+02  0.76351574785E+02  0.00000000000E+00 0.  1.
         -2    1    1    2    0  504  0.42554209565E+02 -0.46410705168E+02 -0.24420291792E+03  0.25219016521E+03  0.00000000000E+00 0.  1.
<scales pt_clust_3="137.74858" pt_clust_4="14000.00000" pt_clust_5="48.13571" pt_clust_6="62.48212"></scales>
<clustering>
<clus scale="   48.136">  1  5  2 -1</clus>
<clus scale="   62.482">  2  6  1 -1</clus>
<clus scale="  137.749">  1  3  2 -1</clus>
<clus scale="   48.136">  1  3  2 -1</clus>
</clustering>
</event>
<event>
 6    0  0.6851428E+002  0.1042960E+03  0.7546771E-02  0.1271513E+00
         21   -1    0    0  503  502  0.00000000000E+00  0.00000000000E+00  0.18900830246E+03  0.18900830246E+03  0.00000000000E+00 0. -1.
          2   -1    0    0  504    0 -0.00000000000E+00 -0.00000000000E+00 -0.86278014809E+03  0.86278014809E+03  0.00000000000E+00 0.  1.
         21    1    1    2  503  505 -0.16838501457E+02  0.30658048986E+02  0.10337845636E+03  0.10913549532E+03  0.00000000000E+00 0. -1.
         21    1    1    2  504  502 -0.13160893904E+02 -0.45887252091E+02  0.39941165264E+02  0.62242635833E+02  0.00000000000E+00 0.  1.
         21    1    1    2  505  501 -0.62019657125E+02 -0.41638044213E+02 -0.21828964800E+02  0.77824599582E+02  0.00000000000E+00 0. -1.
          2    1    1    2  501    0  0.92019052486E+02  0.56867247317E+02 -0.79526250245E+03  0.80258571981E+03  0.00000000000E+00 0.  1.
<scales pt_clust_3="34.97787" pt_clust_4="35.80091" pt_clust_5="14000.00000" pt_clust_6="104.29603"></scales>
<clustering>
<clus scale="   34.978">  1  3  2 -1</clus>
<clus scale="   35.801">  1  4  2 -1</clus>
<clus scale="  104.296">  2  6  1 -1</clus>
<clus scale="   34.978">  1  3  2 -1</clus>
</clustering>
</event>
<event>
 6    0  0.6851428E+002  0.6953849E+02  0.7546771E-02  0.1361669E+00
          2   -1    0    0  503    0 -0.00000000000E+00  0.00000000000E+00  0.39383965684E+03  0.39383965684E+03  0.00000000000E+00 0.  1.
         21   -1    0    0  504  502  0.00000000000E+00 -0.00000000000E+00 -0.17396387858E+03  0.17396387858E+03  0.00000000000E+00 0.  1.
         21    1    1    2  503  502  0.43895364600E+02  0.33144477557E+02 -0.49255904992E+02  0.73834298280E+02  0.00000000000E+00 0.  1.
         21    1    1    2  504  505 -0.94764295954E+02  0.12936645177E+02 -0.50636558090E+02  0.10822055993E+03  0.00000000000E+00 0.  1.
         21    1    1    2  505  501  0.21840165357E+02 -0.70459004936E+02  0.10905045928E+02  0.74567983921E+02  0.00000000000E+00 0.  1.
          2    1    1    2  501    0  0.29028765997E+02  0.24377882202E+02  0.30886319541E+03  0.31118069329E+03  0.00000000000E+00 0.  1.
<scales pt_clust_3="60.55437" pt_clust_4="14000.00000" pt_clust_5="69.53849" pt_clust_6="37.90713"></scales>
<clustering>
<clus scale="   37.907">  1  6  2 -1</clus>
<clus scale="   60.554">  2  3  1 -1</clus>
<clus scale="   69.538">  1  5  2 -1</clus>
<clus scale="   60.554">  2  3  1 -1</clus>
</clustering>
</event>
<event>
 6    0  0.6851428E+002  0.9326759E+02  0.7546771E-02  0.1295126E+00
          1   -1    0    0  504    0 -0.00000000000E+00  0.00000000000E+00  0.49619028757E+03  0.49619028757E+03  0.00000000000E+00 0.  1.
         21   -1    0    0  503  502  0.00000000000E+00 -0.00000000000E+00 -0.35859811490E+03  0.35859811490E+03  0.00000000000E+00 0. -1.
         21    1    1    2  503  505  0.20739169997E+02 -0.42986339614E+02 -0.10941276379E+03  0.11936955828E+03  0.00000000000E+00 0.  1.
         21    1    1    2  504  502 -0.16695062584E+02  0.28043192055E+02 -0.72202078208E+01  0.33425695749E+02  0.00000000000E+00 0.  1.
         21    1    1    2  505  501 -0.87029984808E+02 -0.27772798375E+02 -0.20971980351E+03  0.22875301652E+03  0.00000000000E+00 0. -1.
          1    1    1    2  501    0  0.82985877396E+02  0.42715945934E+02  0.46394494778E+03  0.47324013192E+03  0.00000000000E+00 0.  1.
<scales pt_clust_3="36.74620" pt_clust_4="32.63657" pt_clust_5="14000.00000" pt_clust_6="93.26759"></scales>
<clustering>
<clus scale="   32.637">  2  4  1 -1</clus>
<clus scale="   36.746">  2  3  1 -1</clus>
<clus scale="   93.268">  1  6  2 -1</clus>
<clus scale="   32.637">  2  3  1 -1</clus>
</clustering>
</event>
<event>
 6    0  0.6851428E+002  0.1208746E+03  0.7546771E-02  0.1241661E+00
          1   -1    0    0  504    0 -0.00000000000E+00  0.00000000000E+00  0.18250669729E+04  0.18250669729E+04  0.00000000000E+00 0.  1.
         21   -1    0    0  505  502  0.00000000000E+00 -0.00000000000E+00 -0.60882174307E+02  0.60882174307E+02  0.00000000000E+00 0.  1.
         21    1    1    2  503  502 -0.48302309385E+01  0.12660518358E+03  0.32282182796E+02  0.13074533631E+03  0.00000000000E+00 0.  1.
         21    1    1    2  504  503  0.61940835414E+02 -0.19270331459E+02  0.31006463052E+03  0.31677766315E+03  0.00000000000E+00 0.  1.
         21    1    1    2  505  501 -0.10808746550E+03 -0.75797425446E+02  0.59744697501E+03  0.61185867474E+03  0.00000000000E+00 0.  1.
          1    1    1    2  501    0  0.50976861023E+02 -0.31537426676E+02  0.82439101025E+03  0.82656747300E+03  0.00000000000E+00 0.  1.
<scales pt_clust_3="14000.00000" pt_clust_4="83.20152" pt_clust_5="120.87461" pt_clust_6="59.94372"></scales>
<clustering>
<clus scale="   59.944">  1  6  2 -1</clus>
<clus scale="   83.202">  1  4  2 -1</clus>
<clus scale="  120.875">  1  5  2 -1</clus>
<clus scale="  120.875">  2  3  1 -1</clus>
</clustering>
</event>
<event>
 6    0  0.6851428E+002  0.1437980E+03  0.7546771E-02  0.1208308E+00
          2   -1    0    0  503    0 -0.00000000000E+00  0.00000000000E+00  0.36796375811E+04  0.36796375811E+04  0.00000000000E+00 0.  1.
         21   -1    0    0  505  502  0.00000000000E+00 -0.00000000000E+00 -0.57920617658E+02  0.57920617658E+02  0.00000000000E+00 0.  1.
         21    1    1    2  503  502 -0.74199443302E+02  0.85223518734E+02  0.54586749076E+03  0.55744051073E+03  0.00000000000E+00 0.  1.
         21    1    1    2  504  501  0.51927337896E+02 -0.36047805282E+02  0.48291987374E+02  0.79548782084E+02  0.00000000000E+00 0.  1.
         21    1    1    2  505  504  0.65529090858E+02 -0.43395634931E+02  0.61385343482E+01  0.78834792343E+02  0.00000000000E+00 0.  1.
          2    1    1    2  501    0 -0.43256985452E+02 -0.57800785207E+01  0.30214189509E+04  0.30217341136E+04  0.00000000000E+00 0.  1.
<scales pt_clust_3="136.61061" pt_clust_4="40.26110" pt_clust_5="40.26110" pt_clust_6="43.64145"></scales>
<clustering>
<clus scale="   40.261">  4  5 -1 -1</clus>
<clus scale="   43.641">  1  6  2 -1</clus>
<clus scale="  136.611">  1  3  2 -1</clus>
<clus scale="  143.798">  2  3  1 -1</clus>
</clustering>
</event>
<event>
 6    0  0.6851428E+002  0.1180788E+03  0.7546771E-02  0.1246300E+00
         21   -1    0    0  504  502  0.00000000000E+00  0.00000000000E+00  0.39133869727E+03  0.39133869727E+03  0.00000000000E+00 0.  1.
          2   -1    0    0  503    0 -0.00000000000E+00 -0.00000000000E+00 -0.59999740069E+03  0.59999740069E+03  0.00000000000E+00 0. -1.
         21    1    1    2  503  502  0.49034199781E+02 -0.10009892249E+03  0.36394287124E+03  0.38062916409E+03  0.00000000000E+00 0.  1.
         21    1    1    2  504  505 -0.36687802119E+02  0.88418347849E+01 -0.45816410652E+02  0.59357529866E+02  0.00000000000E+00 0.  1.
         21    1    1    2  505  501 -0.31333991831E+02  0.59812403114E+02 -0.87466050467E+02  0.11049729678E+03  0.00000000000E+00 0.  1.
          2    1    1    2  501    0  0.18987594170E+02  0.31444684593E+02 -0.43931911354E+03  0.44085210722E+03  0.00000000000E+00 0. -1.
<scales pt_clust_3="110.43791" pt_clust_4="31.23899" pt_clust_5="31.23899" pt_clust_6="36.73278"></scales>
<clustering>
<clus scale="   31.239">  4  5 -1 -1</clus>
<clus scale="   36.733">  2  6  1 -1</clus>
<clus scale="  110.438">  1  3  2 -1</clus>
<clus scale="  110.438">  1  3  2 -1</clus>
</clustering>
</event>
<event>
 6    0  0.6851428E+002  0.1860640E+03  0.7546771E-02  0.1162060E+00
          1   -1    0    0  504    0 -0.00000000000E+00  0.00000000000E+00  0.75532251221E+03  0.75532251221E+03  0.00000000000E+00 0.  1.
         21   -1    0    0  505  502  0.00000000000E+00 -0.00000000000E+00 -0.18269971919E+03  0.18269971919E+03  0.00000000000E+00 0.  1.
         21    1    1    2  503  501  0.10331329136E+03 -0.13269173920E+03  0.40816929984E+03  0.44145544640E+03  0.00000000000E+00 0.  1.
         21    1    1    2  504  502 -0.38510536957E+02  0.15076332316E+02  0.81590825163E+02  0.91473602769E+02  0.00000000000E+00 0.  1.
         21    1    1    2  505  503 -0.10335718781E+03  0.13999125195E+03 -0.11084836922E+03  0.20631921833E+03  0.00000000000E+00 0.  1.
          1    1    1    2  501    0  0.38554433407E+02 -0.22375845069E+02  0.19371103723E+03  0.19877396390E+03  0.00000000000E+00 0.  1.
<scales pt_clust_3="30.29049" pt_clust_4="41.35647" pt_clust_5="176.51758" pt_clust_6="30.29049"></scales>
<clustering>
<clus scale="   30.290">  3  6 -1 -1</clus>
<clus scale="   41.356">  1  4  2 -1</clus>
<clus scale="  176.518">  2  5  1 -1</clus>
<clus scale="  176.518">  2  3  1 -1</clus>
</clustering>
</event>
<event>
 6    0  0.6851428E+002  0.6445339E+02  0.7546771E-02  0.1380039E+00
         21   -1    0    0  505  502  0.00000000000E+00  0.00000000000E+00  0.50385215379E+03  0.50385215379E+03  0.00000000000E+00 0.  1.
          2   -1    0    0  504    0 -0.00000000000E+00 -0.00000000000E+00 -0.10368221923E+04  0.10368221923E+04  0.00000000000E+00 0. -1.
         21    1    1    2  503  501  0.41919629904E+02 -0.69045992538E+02 -0.35632598335E+02  0.88285256532E+02  0.00000000000E+00 0.  1.
         21    1    1    2  504  502  0.38167425464E+02  0.30357283096E+01 -0.40510034444E+01  0.38501670637E+02  0.00000000000E+00 0.  1.
         21    1    1    2  505  503 -0.77512228939E+02  0.18838127217E+01  0.45594414989E+03  0.46248974281E+03  0.00000000000E+00 0.  1.
          2    1    1    2  501    0 -0.25748264293E+01  0.64126451506E+02 -0.94923058660E+03  0.95139767608E+03  0.00000000000E+00 0. -1.
<scales pt_clust_3="14000.00000" pt_clust_4="38.28796" pt_clust_5="41.76545" pt_clust_6="64.45339"></scales>
<clustering>
<clus scale="   38.288">  1  4  2 -1</clus>
<clus scale="   41.765">  1  5  2 -1</clus>
<clus scale="   64.453">  2  6  1 -1</clus>
<clus scale="   38.288">  1  3  2 -1</clus>
</clustering>
</event>
<event>
 6    0  0.6851428E+002  0.1903369E+03  0.7546771E-02  0.1158158E+00
         21   -1    0    0  501  502  0.00000000000E+00  0.00000000000E+00  0.12003479553E+04  0.12003479553E+04  0.00000000000E+00 0.  1.
          2   -1    0    0  504    0 -0.00000000000E+00 -0.00000000000E+00 -0.23382396046E+03  0.23382396046E+03  0.00000000000E+00 0.  1.
         21    1    1    2  503  502  0.36862052312E+02  0.19832305870E+02  0.19356559034E+03  0.19803981676E+03  0.00000000000E+00 0.  1.
         21    1    1    2  504  505  0.29177815728E+02  0.53084954044E+02  0.30367512854E+02  0.67760926156E+02  0.00000000000E+00 0. -1.
         21    1    1    2  505  503 -0.97372816226E+02  0.15895368025E+03  0.87831451800E+03  0.89787756979E+03  0.00000000000E+00 0.  1.
          2    1    1    2  501    0  0.31332948185E+02 -0.23187094017E+03 -0.13572362636E+03  0.27049360304E+03  0.00000000000E+00 0.  1.
<scales pt_clust_3="41.85847" pt_clust_4="62.30124" pt_clust_5="190.33690" pt_clust_6="14000.00000"></scales>
<clustering>
<clus scale="   41.858">  1  3  2 -1</clus>
<clus scale="   62.301">  2  4  1 -1</clus>
<clus scale="  190.337">  1  5  2 -1</clus>
<clus scale="   41.858">  1  3  2 -1</clus>
</clustering>
</event>
<event>
 6    0  0.6851428E+002  0.1249110E+03  0.7546771E-02  0.1235208E+00
          1   -1    0    0  505    0 -0.00000000000E+00  0.00000000000E+00  0.14231043809E+04  0.14231043809E+04  0.00000000000E+00 0. -1.
         21   -1    0    0  504  502  0.00000000000E+00 -0.00000000000E+00 -0.10062975995E+04  0.10062975995E+04  0.00000000000E+00 0.  1.
         21    1    1    2  503  502 -0.11239689137E+03 -0.32638585473E+02 -0.73717955906E+03  0.74641278174E+03  0.00000000000E+00 0.  1.
         21    1    1    2  504  501  0.36876894323E+02  0.34896275953E+02 -0.11530280081E+03  0.12598567889E+03  0.00000000000E+00 0.  1.
         21    1    1    2  505  503 -0.26670470133E+02 -0.33884329596E+02 -0.13855040673E+03  0.14510574411E+03  0.00000000000E+00 0. -1.
          1    1    1    2  501    0  0.10219046718E+03  0.31626639116E+02  0.14078395480E+04  0.14118977756E+04  0.00000000000E+00 0. -1.
<scales pt_clust_3="39.04247" pt_clust_4="50.77062" pt_clust_5="39.04247" pt_clust_6="107.07696"></scales>
<clustering>
<clus scale="   39.042">  3  5 -1 -1</clus>
<clus scale="   50.771">  2  4  1 -1</clus>
<clus scale="  107.077">  1  6  2 -1</clus>
<clus scale="   50.771">  2  3  1 -1</clus>
</clustering>
</event>
<event>
 6    0  0.6851428E+002  0.1585553E+03  0.7546771E-02  0.1190338E+00
         21   -1    0    0  504  502  0.00000000000E+00  0.00000000000E+00  0.48622525837E+02  0.48622525837E+02  0.00000000000E+00 0. -1.
          2   -1    0    0  503    0 -0.00000000000E+00 -0.00000000000E+00 -0.33559799405E+04  0.33559799405E+04  0.00000000000E+00 0.  1.
         21    1    1    2  503  505 -0.71274638380E+02  0.15995882841E+02 -0.51335212040E+03  0.51852323175E+03  0.00000000000E+00 0.  1.
         21    1    1    2  504  501  0.70886646003E+02  0.51133610480E+02 -0.29949775140E+03  0.31199113096E+03  0.00000000000E+00 0. -1.
         21    1    1    2  505  502  0.64757832038E+02  0.58576718868E+02 -0.12668889440E+02  0.88234401246E+02  0.00000000000E+00 0. -1.
          2    1    1    2  501    0 -0.64369839661E+02 -0.12570621219E+03 -0.24818386534E+04  0.24858537024E+04  0.00000000000E+00 0.  1.
<scales pt_clust_3="73.04753" pt_clust_4="82.39949" pt_clust_5="14000.00000" pt_clust_6="158.55528"></scales>
<clustering>
<clus scale="   73.048">  2  3  1 -1</clus>
<clus scale="   82.399">  1  4  2 -1</clus>
<clus scale="  158.555">  2  6  1 -1</clus>
<clus scale="   82.399">  1  3  2 -1</clus>
</clustering>
</event>
<event>
 6    0  0.6851428E+002  0.1867276E+03  0.7546771E-02  0.1161446E+00
         -2   -1    0    0    0  501 -0.00000000000E+00  0.00000000000E+00  0.26670047546E+03  0.26670047546E+03  0.00000000000E+00 0.  1.
         21   -1    0    0  503  502  0.00000000000E+00 -0.00000000000E+00 -0.40181928709E+03  0.40181928709E+03  0.00000000000E+00 0.  1.
         21    1    1    2  503  501  0.66411854927E+02 -0.12669934332E+03 -0.69136096917E+01  0.14321681491E+03  0.00000000000E+00 0.  1.
         21    1    1    2  504  502  0.10704327251E+03 -0.13138013885E+02 -0.14287485725E+03  0.17900864346E+03  0.00000000000E+00 0.  1.
         21    1    1    2  505  504  0.52752503733E+02  0.44084532242E+02 -0.58199642116E+02  0.90074807663E+02  0.00000000000E+00 0.  1.
         -2    1    1    2    0  505 -0.22620763117E+03  0.95752824966E+02  0.72869297422E+02  0.25621949652E+03  0.00000000000E+00 0.  1.
<scales pt_clust_3="143.04984" pt_clust_4="59.11788" pt_clust_5="59.11788" pt_clust_6="171.41941"></scales>
<clustering>
<clus scale="   59.118">  4  5 -1 -1</clus>
<clus scale="  143.050">  1  3  2 -1</clus>
<clus scale="  171.419">  1  6  2 -1</clus>
<clus scale="  186.728">  2  3  1 -1</clus>
</clustering>
</event>
<event>
 6    0  0.6851428E+002  0.9608776E+02  0.7546771E-02  0.1288745E+00
          2   -1    0    0  503    0 -0.00000000000E+00  0.00000000000E+00  0.15377127935E+04  0.15377127935E+04  0.00000000000E+00 0.  1.
         21   -1    0    0  504  502  0.00000000000E+00 -0.00000000000E+00 -0.12279639684E+03  0.12279639684E+03  0.00000000000E+00 0.  1.
         21    1    1    2  503  505 -0.70223317444E+01 -0.83946680036E+02  0.35229079662E+03  0.36222253328E+03  0.00000000000E+00 0.  1.
         21    1    1    2  504  501 -0.41710531464E+02  0.74661250244E+02 -0.99070233473E+02  0.13087773639E+03  0.00000000000E+00 0.  1.
         21    1    1    2  505  502  0.24487249806E+02 -0.37541397069E+02  0.23639004201E+03  0.24060181599E+03  0.00000000000E+00 0.  1.
          2    1    1    2  501    0  0.24245613403E+02  0.46826826860E+02  0.92530579147E+03  0.92680710464E+03  0.00000000000E+00 0.  1.
<scales pt_clust_3="30.84120" pt_clust_4="86.28539" pt_clust_5="30.84120" pt_clust_6="52.73141"></scales>
<clustering>
<clus scale="   30.841">  3  5 -1 -1</clus>
<clus scale="   52.731">  1  6  2 -1</clus>
<clus scale="   86.285">  2  4  1 -1</clus>
<clus scale="   86.285">  2  3  1 -1</clus>
</clustering>
</event>
<event>
 6    0  0.6851428E+002  0.1775190E+03  0.7546771E-02  0.1170226E+00
         21   -1    0    0  503  502  0.00000000000E+00  0.00000000000E+00  0.21281529523E+03  0.21281529523E+03  0.00000000000E+00 0.  1.
          2   -1    0    0  502    0 -0.00000000000E+00 -0.00000000000E+00 -0.11718015766E+04  0.11718015766E+04  0.00000000000E+00 0. -1.
         21    1    1    2  503  505  0.11305184819E+03 -0.51277817726E+02  0.13090116678E+03  0.18040302224E+03  0.00000000000E+00 0.  1.
         21    1    1    2  504  501 -0.12079145945E+03  0.11569010733E+03 -0.18675950458E+03  0.25070678124E+03  0.00000000000E+00 0.  1.
         21    1    1    2  505  504  0.41553700023E+02 -0.13774344634E+02  0.43462005412E+01  0.43992408605E+02  0.00000000000E+00 0. -1.
          2    1    1    2  501    0 -0.33814088762E+02 -0.50637944974E+02 -0.90747414406E+03  0.90951465970E+03  0.00000000000E+00 0. -1.
<scales pt_clust_3="37.21275" pt_clust_4="166.09095" pt_clust_5="37.21275" pt_clust_6="60.89002"></scales>
<clustering>
<clus scale="   37.213">  3  5 -1 -1</clus>
<clus scale="   60.890">  2  6  1 -1</clus>
<clus scale="  166.091">  2  4  1 -1</clus>
<clus scale="  177.519">  1  3  2 -1</clus>
</clustering>
</event>
<event>
 6    0  0.6851428E+002  0.1445739E+03  0.7546771E-02  0.1207304E+00
         21   -1    0    0  504  502  0.00000000000E+00  0.00000000000E+00  0.40151930240E+02  0.40151930240E+02  0.00000000000E+00 0. -1.
          2   -1    0    0  505    0 -0.00000000000E+00 -0.00000000000E+00 -0.32432425060E+04  0.32432425060E+04  0.00000000000E+00 0. -1.
         21    1    1    2  503  502  0.54220566959E+02 -0.32117583733E+02 -0.34141465843E+02  0.71673208078E+02  0.00000000000E+00 0. -1.
         21    1    1    2  504  501  0.26104158045E+02  0.30933033125E+02 -0.53876718406E+02  0.67386796865E+02  0.00000000000E+00 0. -1.
         21    1    1    2  505  503  0.20690114187E+02 -0.76981323647E+02 -0.10637919993E+03  0.13293133263E+03  0.00000000000E+00 0. -1.
          2    1    1    2  501    0 -0.10101483919E+03  0.78165874255E+02 -0.30086931916E+04  0.30114030987E+04  0.00000000000E+00 0. -1.
<scales pt_clust_3="67.22102" pt_clust_4="40.47567" pt_clust_5="67.22102" pt_clust_6="127.66686"></scales>
<clustering>
<clus scale="   40.476">  1  4  2 -1</clus>
<clus scale="   67.221">  3  5 -1 -1</clus>
<clus scale="  127.667">  2  6  1 -1</clus>
<clus scale="   40.476">  1  3  2 -1</clus>
</clustering>
</event>
<event>
 6    0  0.6851428E+002  0.1318378E+03  0.7546771E-02  0.1224754E+00
          2   -1    0    0  505    0 -0.00000000000E+00  0.00000000000E+00  0.12293486099E+04  0.12293486099E+04  0.00000000000E+00 0. -1.
         21   -1    0    0  504  502  0.00000000000E+00 -0.00000000000E+00 -0.11027917431E+03  0.11027917431E+03  0.00000000000E+00 0.  1.
         21    1    1    2  503  501  0.11838251671E+03 -0.41044499563E+02  0.87905731237E+02  0.15305714224E+03  0.00000000000E+00 0.  1.
         21    1    1    2  504  503 -0.13521176791E+03 -0.46108136534E+02  0.96461732193E+01  0.14318250974E+03  0.00000000000E+00 0.  1.
         21    1    1    2  505  502 -0.37004709512E+02  0.48342142686E+02  0.85167260703E+02  0.10468893724E+03  0.00000000000E+00 0.  1.
          2    1    1    2  501    0  0.53833960716E+02  0.38810493410E+02  0.93635027045E+03  0.93869919501E+03  0.00000000000E+00 0. -1.
<scales pt_clust_3="131.83784" pt_clust_4="14000.00000" pt_clust_5="60.87948" pt_clust_6="66.34868"></scales>
<clustering>
<clus scale="   60.879">  2  5  1 -1</clus>
<clus scale="   66.349">  1  6  2 -1</clus>
<clus scale="  131.838">  1  3  2 -1</clus>
<clus scale="   60.879">  2  3  1 -1</clus>
</clustering>
</event>
<event>
 6    0  0.6851428E+002  0.2498115E+03  0.7546771E-02  0.1113424E+00
          2   -1    0    0  505    0 -0.00000000000E+00  0.00000000000E+00  0.28113934488E+03  0.28113934488E+03  0.00000000000E+00 0. -1.
         21   -1    0    0  503  502  0.00000000000E+00 -0.00000000000E+00 -0.51606268888E+03  0.51606268888E+03  0.00000000000E+00 0.  1.
         21    1    1    2  503  501 -0.29776815282E+02 -0.77352550334E+01 -0.57567610650E+02  0.65272679543E+02  0.00000000000E+00 0. -1.
         21    1    1    2  504  502  0.89303063950E+02  0.14429250611E+03 -0.16931730110E+03  0.23971590060E+03  0.00000000000E+00 0.  1.
         21    1    1    2  505  504  0.43535273981E+02  0.76152663411E+02 -0.17978444290E+03  0.20004248082E+03  0.00000000000E+00 0.  1.
          2    1    1    2  501    0 -0.10306152265E+03 -0.21270991448E+03  0.17174601065E+03  0.29217097280E+03  0.00000000000E+00 0. -1.
<scales pt_clust_3="30.76512" pt_clust_4="51.12006" pt_clust_5="51.12006" pt_clust_6="239.02401"></scales>
<clustering>
<clus scale="   30.765">  2  3  1 -1</clus>
<clus scale="   51.120">  4  5 -1 -1</clus>
<clus scale="  239.024">  1  6  2 -1</clus>
<clus scale="   30.765">  2  3  1 -1</clus>
</clustering>
</event>
<event>
 6    0  0.6851428E+002  0.1741919E+03  0.7546771E-02  0.1173546E+00
         21   -1    0    0  503  502  0.00000000000E+00  0.00000000000E+00  0.11559126425E+03  0.11559126425E+03  0.00000000000E+00 0.  1.
          2   -1    0    0  505    0 -0.00000000000E+00 -0.00000000000E+00 -0.19078834072E+04  0.19078834072E+04  0.00000000000E+00 0. -1.
         21    1    1    2  503  501  0.14280143231E+02 -0.32348003332E+02 -0.21541620794E+02  0.41404797267E+02  0.00000000000E+00 0. -1.
         21    1    1    2  504  502  0.17117994651E+02  0.21925878892E+03 -0.29890769537E+02  0.22194796770E+03  0.00000000000E+00 0.  1.
         21    1    1    2  505  504 -0.58323625804E+02 -0.99822382102E+02 -0.40562847883E+03  0.42178266457E+03  0.00000000000E+00 0. -1.
          2    1    1    2  501    0  0.26925487922E+02 -0.87088403489E+02 -0.13352312738E+04  0.13383392419E+04  0.00000000000E+00 0. -1.
<scales pt_clust_3="35.35981" pt_clust_4="174.19193" pt_clust_5="14000.00000" pt_clust_6="91.67234"></scales>
<clustering>
<clus scale="   35.360">  1  3  2 -1</clus>
<clus scale="   91.672">  2  6  1 -1</clus>
<clus scale="  174.192">  1  4  2 -1</clus>
<clus scale="   35.360">  1  3  2 -1</clus>
</clustering>
</event>
<event>
 6    0  0.6851428E+002  0.1200850E+03  0.7546771E-02  0.1242957E+00
          2   -1    0    0  504    0 -0.00000000000E+00  0.00000000000E+00  0.17972424945E+04  0.17972424945E+04  0.00000000000E+00 0. -1.
         21   -1    0    0  505  502  0.00000000000E+00 -0.00000000000E+00 -0.20304794932E+02  0.20304794932E+02  0.00000000000E+00 0. -1.
         21    1    1    2  503  501 -0.36119762926E+02 -0.47852834093E+02  0.19999295299E+03  0.20878628367E+03  0.00000000000E+00 0. -1.
         21    1    1    2  504  502  0.72131243320E+02  0.10658228415E+03  0.50405987569E+03  0.52022981252E+03  0.00000000000E+00 0. -1.
         21    1    1    2  505  503 -0.29641566334E+02 -0.28568094112E+02  0.48220712462E+02  0.63403434972E+02  0.00000000000E+00 0. -1.
          2    1    1    2  501    0 -0.63699140605E+01 -0.30161355948E+02  0.10246641585E+04  0.10251277583E+04  0.00000000000E+00 0. -1.
<scales pt_clust_3="38.41489" pt_clust_4="110.03584" pt_clust_5="38.41489" pt_clust_6="30.82666"></scales>
<clustering>
<clus scale="   30.827">  1  6  2 -1</clus>
<clus scale="   38.415">  3  5 -1 -1</clus>
<clus scale="  110.036">  1  4  2 -1</clus>
<clus scale="  120.085">  2  3  1 -1</clus>
</clustering>
</event>
<event>
 6    0  0.6851428E+002  0.1409140E+03  0.7546771E-02  0.1212104E+00
         21   -1    0    0  505  502  0.00000000000E+00  0.00000000000E+00  0.13000166294E+04  0.13000166294E+04  0.00000000000E+00 0.  1.
          2   -1    0    0  503    0 -0.00000000000E+00 -0.00000000000E+00 -0.48095035931E+03  0.48095035931E+03  0.00000000000E+00 0. -1.
         21    1    1    2  503  502 -0.10614939329E+02  0.63875671534E+02  0.21854955937E+03  0.22794009794E+03  0.00000000000E+00 0.  1.
         21    1    1    2  504  501  0.60051896105E+02 -0.22854925596E+02  0.51813933774E+03  0.52210817956E+03  0.00000000000E+00 0.  1.
         21    1    1    2  505  504  0.71734854339E+02  0.17921723290E+02  0.54452789230E+03  0.54952497940E+03  0.00000000000E+00 0.  1.
          2    1    1    2  501    0 -0.12117181111E+03 -0.58942469228E+02 -0.46215051933E+03  0.48139373179E+03  0.00000000000E+00 0. -1.
<scales pt_clust_3="64.75167" pt_clust_4="38.92891" pt_clust_5="38.92891" pt_clust_6="134.58402"></scales>
<clustering>
<clus scale="   38.929">  4  5 -1 -1</clus>
<clus scale="   64.752">  1  3  2 -1</clus>
<clus scale="  134.584">  2  6  1 -1</clus>
<clus scale="   64.752">  1  3  2 -1</clus>
</clustering>
</event>
<event>
 6    0  0.6851428E+002  0.6660308E+02  0.7546771E-02  0.1372041E+00
         21   -1    0    0  504  502  0.00000000000E+00  0.00000000000E+00  0.32363387167E+03  0.32363387167E+03  0.00000000000E+00 0. -1.
          1   -1    0    0  505    0 -0.00000000000E+00 -0.00000000000E+00 -0.13280710959E+04  0.13280710959E+04  0.00000000000E+00 0. -1.
         21    1    1    2  503  502  0.36941753784E+02 -0.52011848830E+02  0.17138099985E+03  0.18286982447E+03  0.00000000000E+00 0. -1.
         21    1    1    2  504  501  0.74573421266E+02  0.86085714584E+01  0.62731049417E+02  0.97828867022E+02  0.00000000000E+00 0. -1.
         21    1    1    2  505  503 -0.66191503348E+02  0.49027616079E+02  0.40049970892E+02  0.91591606724E+02  0.00000000000E+00 0. -1.
          1    1    1    2  501    0 -0.45323671702E+02 -0.56243387081E+01 -0.12785992444E+04  0.12794146694E+04  0.00000000000E+00 0. -1.
<scales pt_clust_3="66.60308" pt_clust_4="58.73403" pt_clust_5="14000.00000" pt_clust_6="45.67131"></scales>
<clustering>
<clus scale="   45.671">  2  6  1 -1</clus>
<clus scale="   58.734">  2  4  1 -1</clus>
<clus scale="   66.603">  1  3  2 -1</clus>
<clus scale="   66.603">  1  3  2 -1</clus>
</clustering>
</event>
<event>
 6    0  0.6851428E+002  0.1857121E+03  0.7546771E-02  0.1162387E+00
         -4   -1    0    0    0  501 -0.00000000000E+00  0.00000000000E+00  0.52700703401E+02  0.52700703401E+02  0.00000000000E+00 0.  1.
         21   -1    0    0  504  502  0.00000000000E+00 -0.00000000000E+00 -0.95111932162E+03  0.95111932162E+03  0.00000000000E+00 0.  1.
         21    1    1    2  503  505  0.51685442625E+02 -0.12242307785E+02 -0.11871871470E+03  0.13005918768E+03  0.00000000000E+00 0.  1.
         21    1    1    2  504  501 -0.29468501431E+02 -0.52177769928E+02 -0.23620257686E+03  0.24368539055E+03  0.00000000000E+00 0. -1.
         21    1    1    2  505  502  0.79352152577E+02 -0.94838423458E+02 -0.27778720954E+03  0.30406713809E+03  0.00000000000E+00 0.  1.
         -4    1    1    2    0  503 -0.10156909377E+03  0.15925850117E+03 -0.26571011711E+03  0.32600830870E+03  0.00000000000E+00 0.  1.
<scales pt_clust_3="33.49293" pt_clust_4="59.92422" pt_clust_5="33.49293" pt_clust_6="178.54244"></scales>
<clustering>
<clus scale="   33.493">  3  5 -1 -1</clus>
<clus scale="   59.924">  2  4  1 -1</clus>
<clus scale="  178.542">  1  6  2 -1</clus>
<clus scale="   59.924">  2  3  1 -1</clus>
</clustering>
</event>
<event>
 6    0  0.6851428E+002  0.7896364E+02  0.7546771E-02  0.1332018E+00
          2   -1    0    0  504    0 -0.00000000000E+00  0.00000000000E+00  0.33481202647E+03  0.33481202647E+03  0.00000000000E+00 0.  1.
         21   -1    0    0  503  502  0.00000000000E+00 -0.00000000000E+00 -0.11911772966E+03  0.11911772966E+03  0.00000000000E+00 0. -1.
         21    1    1    2  503  501  0.45111017900E+02 -0.66478812840E+02 -0.60550283435E+02  0.10060205424E+03  0.00000000000E+00 0. -1.
         21    1    1    2  504  505  0.11277449177E+02  0.39022508068E+02  0.27472682937E+02  0.49037590720E+02  0.00000000000E+00 0.  1.
         21    1    1    2  505  502  0.34734618627E+02  0.55162250210E+02  0.16514238555E+03  0.17754260076E+03  0.00000000000E+00 0.  1.
          2    1    1    2  501    0 -0.91123085705E+02 -0.27705945438E+02  0.83629511755E+02  0.12674751042E+03  0.00000000000E+00 0.  1.
<scales pt_clust_3="78.61495" pt_clust_4="40.61942" pt_clust_5="78.96364" pt_clust_6="14000.00000"></scales>
<clustering>
<clus scale="   40.619">  1  4  2 -1</clus>
<clus scale="   78.615">  2  3  1 -1</clus>
<clus scale="   78.964">  1  5  2 -1</clus>
<clus scale="   78.615">  2  3  1 -1</clus>
</clustering>
</event>
<event>
 6    0  0.6851428E+002  0.1600813E+03  0.7546771E-02  0.1188605E+00
         -4   -1    0    0    0  501 -0.00000000000E+00  0.00000000000E+00  0.83283540914E+03  0.83283540914E+03  0.00000000000E+00 0. -1.
         21   -1    0    0  504  502  0.00000000000E+00 -0.00000000000E+00 -0.23176031669E+04  0.23176031669E+04  0.00000000000E+00 0. -1.
         21    1    1    2  503  501 -0.16101735712E+03 -0.97878183543E+02 -0.47173241699E+03  0.50797460699E+03  0.00000000000E+00 0.  1.
         21    1    1    2  504  503  0.32902002273E+02  0.11318828700E+03 -0.14681081080E+04  0.14728324911E+04  0.00000000000E+00 0. -1.
         21    1    1    2  505  502  0.71264103529E+02  0.29954886393E+02 -0.35144497670E+03  0.35984641073E+03  0.00000000000E+00 0.  1.
         -4    1    1    2    0  505  0.56851251315E+02 -0.45264989853E+02  0.80651774384E+03  0.80978506730E+03  0.00000000000E+00 0. -1.
<scales pt_clust_3="160.08126" pt_clust_4="14000.00000" pt_clust_5="83.94204" pt_clust_6="72.67038"></scales>
<clustering>
<clus scale="   72.670">  1  6  2 -1</clus>
<clus scale="   83.942">  2  5  1 -1</clus>
<clus scale="  160.081">  1  3  2 -1</clus>
<clus scale="   83.942">  2  3  1 -1</clus>
</clustering>
</event>
<event>
 6    0  0.6851428E+002  0.8789488E+02  0.7546771E-02  0.1308031E+00
          1   -1    0    0  504    0 -0.00000000000E+00  0.00000000000E+00  0.24172402509E+03  0.24172402509E+03  0.00000000000E+00 0.  1.
         21   -1    0    0  503  502  0.00000000000E+00 -0.00000000000E+00 -0.12338839551E+03  0.12338839551E+03  0.00000000000E+00 0. -1.
         21    1    1    2  503  501  0.16573286582E+02  0.38474249191E+02 -0.18606841208E+02  0.45838370593E+02  0.00000000000E+00 0.  1.
         21    1    1    2  504  505  0.21170444133E+02 -0.70295800903E+02 -0.23899032915E+02  0.77206548321E+02  0.00000000000E+00 0. -1.
         21    1    1    2  505  502  0.44874934649E+02 -0.16519972754E+02 -0.75102206394E+01  0.48405295925E+02  0.00000000000E+00 0. -1.
          1    1    1    2  501    0 -0.82618665364E+02  0.48341524466E+02  0.16835172434E+03  0.19366220576E+03  0.00000000000E+00 0.  1.
<scales pt_clust_3="41.89202" pt_clust_4="14000.00000" pt_clust_5="50.18004" pt_clust_6="87.89488"></scales>
<clustering>
<clus scale="   41.892">  2  3  1 -1</clus>
<clus scale="   50.180">  2  5  1 -1</clus>
<clus scale="   87.895">  1  6  2 -1</clus>
<clus scale="   41.892">  2  3  1 -1</clus>
</clustering>
</event>
<event>
 6    0  0.6851428E+002  0.7131608E+02  0.7546771E-02  0.1355674E+00
         21   -1    0    0  503  502  0.00000000000E+00  0.00000000000E+00  0.12024607292E+03  0.12024607292E+03  0.00000000000E+00 0.  1.
          1   -1    0    0  505    0 -0.00000000000E+00 -0.00000000000E+00 -0.75528524258E+03  0.75528524258E+03  0.00000000000E+00 0. -1.
         21    1    1    2  503  504  0.94007777995E+02  0.29597146074E+02  0.31888101554E+02  0.10358718260E+03  0.00000000000E+00 0.  1.
         21    1    1    2  504  501 -0.31443340984E+02  0.58244871865E+02 -0.33585567474E+02  0.74223575320E+02  0.00000000000E+00 0.  1.
         21    1    1    2  505  502 -0.52761368005E+02 -0.15462067319E+02  0.50059555101E+01  0.55207762770E+02  0.00000000000E+00 0.  1.
          1    1    1    2  501    0 -0.98030690054E+01 -0.72379950620E+02 -0.63834765925E+03  0.64251279480E+03  0.00000000000E+00 0. -1.
<scales pt_clust_3="57.25447" pt_clust_4="14000.00000" pt_clust_5="54.98034" pt_clust_6="71.31608"></scales>
<clustering>
<clus scale="   54.980">  1  5  2 -1</clus>
<clus scale="   57.254">  1  3  2 -1</clus>
<clus scale="   71.316">  2  6  1 -1</clus>
<clus scale="   54.980">  1  3  2 -1</clus>
</clustering>
</event>
<event>
 6    0  0.6851428E+002  0.8471702E+02  0.7546771E-02  0.1316174E+00
         21   -1    0    0  503  502  0.00000000000E+00  0.00000000000E+00  0.32339503630E+03  0.32339503630E+03  0.00000000000E+00 0. -1.
          2   -1    0    0  504    0 -0.00000000000E+00 -0.00000000000E+00 -0.15334384409E+04  0.15334384409E+04  0.00000000000E+00 0.  1.
         21    1    1    2  503  505  0.31821550279E+02  0.45210171518E+01  0.26552206859E+03  0.26746031400E+03  0.00000000000E+00 0. -1.
         21    1    1    2  504  502  0.65036657998E+02  0.47050114735E+02 -0.29422465653E+02  0.85493635232E+02  0.00000000000E+00 0. -1.
         21    1    1    2  505  501 -0.10281395635E+03  0.24088578834E+02 -0.72382423547E+02  0.12802415588E+03  0.00000000000E+00 0. -1.
          2    1    1    2  501    0  0.59557480758E+01 -0.75659710721E+02 -0.13737605840E+04  0.13758553721E+04  0.00000000000E+00 0.  1.
<scales pt_clust_3="32.14111" pt_clust_4="84.71702" pt_clust_5="14000.00000" pt_clust_6="75.85906"></scales>
<clustering>
<clus scale="   32.141">  1  3  2 -1</clus>
<clus scale="   75.859">  2  6  1 -1</clus>
<clus scale="   84.717">  2  4  1 -1</clus>
<clus scale="   32.141">  1  3  2 -1</clus>
</clustering>
</event>
<event>
 6    0  0.6851428E+002  0.1507449E+03  0.7546771E-02  0.1199561E+00
          2   -1    0    0  504    0 -0.00000000000E+00  0.00000000000E+00  0.16822460921E+04  0.16822460921E+04  0.00000000000E+00 0. -1.
         21   -1    0    0  505  502  0.00000000000E+00 -0.00000000000E+00 -0.88963737021E+02  0.88963737021E+02  0.00000000000E+00 0.  1.
         21    1    1    2  503  501  0.34932984452E+02 -0.80179312914E+02  0.56997864106E+02  0.10439249080E+03  0.00000000000E+00 0.  1.
         21    1    1    2  504  502  0.17973677164E+02  0.33356457913E+02 -0.31467515523E+02  0.49253536812E+02  0.00000000000E+00 0.  1.
         21    1    1    2  505  503  0.57406468920E+02 -0.47904503058E+02  0.43723289119E+02  0.86614491273E+02  0.00000000000E+00 0.  1.
          2    1    1    2  501    0 -0.11031313054E+03  0.94727358059E+02  0.15240287174E+04  0.15309493102E+04  0.00000000000E+00 0. -1.
<scales pt_clust_3="34.68057" pt_clust_4="37.89072" pt_clust_5="34.68057" pt_clust_6="146.00388"></scales>
<clustering>
<clus scale="   34.681">  3  5 -1 -1</clus>
<clus scale="   37.891">  2  4  1 -1</clus>
<clus scale="  146.004">  1  6  2 -1</clus>
<clus scale="   37.891">  2  3  1 -1</clus>
</clustering>
</event>
<event>
 6    0  0.6851428E+002  0.1251513E+03  0.7546771E-02  0.1234833E+00
          2   -1    0    0  504    0 -0.00000000000E+00  0.00000000000E+00  0.23716241716E+04  0.23716241716E+04  0.00000000000E+00 0. -1.
         21   -1    0    0  505  502  0.00000000000E+00 -0.00000000000E+00 -0.25641247245E+03  0.25641247245E+03  0.00000000000E+00 0.  1.
         21    1    1    2  503  502 -0.18312725300E+02  0.24391175415E+02 -0.14303751197E+02  0.33688019300E+02  0.00000000000E+00 0.  1.
         21    1    1    2  504  503  0.55834981414E+02 -0.17618468883E+02 -0.33316684062E+01  0.58643461781E+02  0.00000000000E+00 0.  1.
         21    1    1    2  505  501  0.47730255647E+02  0.85200092009E+02 -0.18779871267E+03  0.21167330834E+03  0.00000000000E+00 0.  1.
          2    1    1    2  501    0 -0.85252511760E+02 -0.91972798541E+02  0.23206458314E+04  0.23240318546E+04  0.00000000000E+00 0. -1.
<scales pt_clust_3="30.50058" pt_clust_4="55.29239" pt_clust_5="125.15129" pt_clust_6="14000.00000"></scales>
<clustering>
<clus scale="   30.501">  2  3  1 -1</clus>
<clus scale="   55.292">  2  4  1 -1</clus>
<clus scale="  125.151">  2  5  1 -1</clus>
<clus scale="   30.501">  2  3  1 -1</clus>
</clustering>
</event>
<event>
 6    0  0.6851428E+002  0.2730227E+03  0.7546771E-02  0.1099562E+00
         21   -1    0    0  501  502  0.00000000000E+00  0.00000000000E+00  0.10530527873E+03  0.10530527873E+03  0.00000000000E+00 0.  1.
          2   -1    0    0  505    0 -0.00000000000E+00 -0.00000000000E+00 -0.25426926089E+04  0.25426926089E+04  0.00000000000E+00 0. -1.
         21    1    1    2  503  502 -0.85834805685E+02  0.19557192573E+02  0.35959690352E+02  0.95095725343E+02  0.00000000000E+00 0.  1.
         21    1    1    2  504  503  0.12438010627E+03 -0.21727826625E+03 -0.61086584708E+03  0.66017977775E+03  0.00000000000E+00 0.  1.
         21    1    1    2  505  504 -0.20746483841E+02 -0.46601285173E+02 -0.90482831067E+02  0.10387126210E+03  0.00000000000E+00 0.  1.
          2    1    1    2  501    0 -0.17798816741E+02  0.24432235885E+03 -0.17719983424E+04  0.17888511225E+04  0.00000000000E+00 0. -1.
<scales pt_clust_3="88.03464" pt_clust_4="48.43033" pt_clust_5="48.43033" pt_clust_6="251.05717"></scales>
<clustering>
<clus scale="   48.430">  4  5 -1 -1</clus>
<clus scale="   88.035">  1  3  2 -1</clus>
<clus scale="  251.057">  2  6  1 -1</clus>
<clus scale="   88.035">  1  3  2 -1</clus>
</clustering>
</event>
<event>
 6    0  0.6851428E+002  0.1037729E+03  0.7546771E-02  0.1272556E+00
         21   -1    0    0  504  502  0.00000000000E+00  0.00000000000E+00  0.14512142504E+03  0.14512142504E+03  0.00000000000E+00 0. -1.
          3   -1    0    0  502    0 -0.00000000000E+00 -0.00000000000E+00 -0.28284278320E+03  0.28284278320E+03  0.00000000000E+00 0.  1.
         21    1    1    2  503  501 -0.23810872737E+02 -0.30299320804E+02 -0.21338202599E+02  0.44049124757E+02  0.00000000000E+00 0. -1.
         21    1    1    2  504  505  0.26279730995E+02  0.48052178650E+02  0.56364910292E+02  0.78591597811E+02  0.00000000000E+00 0.  1.
         21    1    1    2  505  503 -0.91177941069E+01 -0.99823360869E+02  0.14016153053E+02  0.10121408050E+03  0.00000000000E+00 0. -1.
          3    1    1    2  501    0  0.66489358485E+01  0.82070503022E+02 -0.18676421891E+03  0.20410940517E+03  0.00000000000E+00 0.  1.
<scales pt_clust_3="34.13880" pt_clust_4="54.76893" pt_clust_5="34.13880" pt_clust_6="87.96155"></scales>
<clustering>
<clus scale="   34.139">  3  5 -1 -1</clus>
<clus scale="   54.769">  1  4  2 -1</clus>
<clus scale="   87.962">  2  6  1 -1</clus>
<clus scale="   54.769">  1  3  2 -1</clus>
</clustering>
</event>
<event>
 6    0  0.6851428E+002  0.1124283E+03  0.7546771E-02  0.1256138E+00
          2   -1    0    0  504    0 -0.00000000000E+00  0.00000000000E+00  0.71333990544E+03  0.71333990544E+03  0.00000000000E+00 0.  1.
         21   -1    0    0  505  502  0.00000000000E+00 -0.00000000000E+00 -0.10181461011E+03  0.10181461011E+03  0.00000000000E+00 0.  1.
         21    1    1    2  503  502  0.83031939533E+02  0.74632012807E+02 -0.36861612829E+02  0.11757133502E+03  0.00000000000E+00 0.  1.
         21    1    1    2  504  503 -0.31321086261E+02 -0.13889763120E+03  0.33674272284E+03  0.36560801931E+03  0.00000000000E+00 0.  1.
         21    1    1    2  505  501 -0.61668272773E+02  0.19624629690E+02  0.13820405021E+03  0.15260557478E+03  0.00000000000E+00 0.  1.
          2    1    1    2  501    0  0.99574195011E+01  0.44640988704E+02  0.17344013511E+03  0.17936958645E+03  0.00000000000E+00 0.  1.
<scales pt_clust_3="14000.00000" pt_clust_4="112.42834" pt_clust_5="66.95836" pt_clust_6="45.73804"></scales>
<clustering>
<clus scale="   45.738">  1  6  2 -1</clus>
<clus scale="   66.958">  1  5  2 -1</clus>
<clus scale="  112.428">  1  4  2 -1</clus>
<clus scale="  112.428">  2  3  1 -1</clus>
</clustering>
</event>
<event>
 6    0  0.6851428E+002  0.1015978E+03  0.7546771E-02  0.1276972E+00
         21   -1    0    0  505  502  0.00000000000E+00  0.00000000000E+00  0.97816637438E+02  0.97816637438E+02  0.00000000000E+00 0. -1.
         -1   -1    0    0    0  501 -0.00000000000E+00 -0.00000000000E+00 -0.61421771409E+03  0.61421771409E+03  0.00000000000E+00 0. -1.
         21    1    1    2  503  504 -0.47456128014E+01 -0.82341613769E+02 -0.13939737372E+03  0.16197002809E+03  0.00000000000E+00 0.  1.
         21    1    1    2  504  502  0.27064949046E+02  0.17808744116E+02 -0.13598562968E+02  0.35136643958E+02  0.00000000000E+00 0.  1.
         21    1    1    2  505  501  0.38299909578E+02 -0.43261164076E+02  0.54305845974E+02  0.79293986517E+02  0.00000000000E+00 0. -1.
         -1    1    1    2    0  503 -0.60619245823E+02  0.10779403373E+03 -0.41771098594E+03  0.43563369297E+03  0.00000000000E+00 0. -1.
<scales pt_clust_3="14000.00000" pt_clust_4="32.39850" pt_clust_5="66.06853" pt_clust_6="101.59777"></scales>
<clustering>
<clus scale="   32.399">  1  4  2 -1</clus>
<clus scale="   66.069">  1  5  2 -1</clus>
<clus scale="  101.598">  2  6  1 -1</clus>
<clus scale="   32.399">  1  3  2 -1</clus>
</clustering>
</event>
<event>
 6    0  0.6851428E+002  0.1437822E+03  0.7546771E-02  0.1208328E+00
          4   -1    0    0  504    0 -0.00000000000E+00  0.00000000000E+00  0.18832768657E+04  0.18832768657E+04  0.00000000000E+00 0. -1.
         21   -1    0    0  505  502  0.00000000000E+00 -0.00000000000E+00 -0.22212659423E+02  0.22212659423E+02  0.00000000000E+00 0. -1.
         21    1    1    2  503  502 -0.38510712929E+01 -0.38997466919E+02  0.73733918645E+02  0.83500442723E+02  0.00000000000E+00 0. -1.
         21    1    1    2  504  503  0.64086399843E+02 -0.11754126459E+03  0.76221726785E+03  0.77388511998E+03  0.00000000000E+00 0. -1.
         21    1    1    2  505  501 -0.87052248243E+02  0.13777237422E+03  0.60019342846E+03  0.62192561660E+03  0.00000000000E+00 0. -1.
          4    1    1    2  501    0  0.26816919693E+02  0.18766357281E+02  0.42491959130E+03  0.42617834578E+03  0.00000000000E+00 0. -1.
<scales pt_clust_3="38.06142" pt_clust_4="14000.00000" pt_clust_5="143.78223" pt_clust_6="32.73108"></scales>
<clustering>
<clus scale="   32.731">  1  6  2 -1</clus>
<clus scale="   38.061">  2  3  1 -1</clus>
<clus scale="  143.782">  2  5  1 -1</clus>
<clus scale="   38.061">  2  3  1 -1</clus>
</clustering>
</event>
<event>
 6    0  0.6851428E+002  0.1258710E+03  0.7546771E-02  0.1233714E+00
          2   -1    0    0  505    0 -0.00000000000E+00  0.00000000000E+00  0.34411544364E+03  0.34411544364E+03  0.00000000000E+00 0. -1.
         21   -1    0    0  503  502  0.00000000000E+00 -0.00000000000E+00 -0.53567934484E+03  0.53567934484E+03  0.00000000000E+00 0.  1.
         21    1    1    2  503  504 -0.23334593414E+02 -0.25514931434E+02 -0.19764145034E+03  0.20064311070E+03  0.00000000000E+00 0.  1.
         21    1    1    2  504  501  0.11861021796E+02 -0.10211597359E+03 -0.29710155622E+03  0.31438462209E+03  0.00000000000E+00 0.  1.
         21    1    1    2  505  502  0.29910598605E+02 -0.57241914114E+01 -0.27003310743E+01  0.30572897542E+02  0.00000000000E+00 0.  1.
          2    1    1    2  501    0 -0.18437026988E+02  0.13335509643E+03  0.30587943643E+03  0.33419415815E+03  0.00000000000E+00 0. -1.
<scales pt_clust_3="34.50387" pt_clust_4="14000.00000" pt_clust_5="30.45341" pt_clust_6="125.87097"></scales>
<clustering>
<clus scale="   30.453">  1  5  2 -1</clus>
<clus scale="   34.504">  2  3  1 -1</clus>
<clus scale="  125.871">  1  6  2 -1</clus>
<clus scale="   34.504">  2  3  1 -1</clus>
</clustering>
</event>
<event>
 6    0  0.6851428E+002  0.1324989E+03  0.7546771E-02  0.1223794E+00
          2   -1    0    0  504    0 -0.00000000000E+00  0.00000000000E+00  0.78210875111E+03  0.78210875111E+03  0.00000000000E+00 0.  1.
         21   -1    0    0  503  502  0.00000000000E+00 -0.00000000000E+00 -0.23158346373E+03  0.23158346373E+03  0.00000000000E+00 0. -1.
         21    1    1    2  503  501  0.41818122841E+02  0.62724097609E+01 -0.10203120119E+02  0.43499450368E+02  0.00000000000E+00 0.  1.
         21    1    1    2  504  505 -0.11156630301E+03  0.69675992289E+02 -0.65592617182E+02  0.14698358853E+03  0.00000000000E+00 0. -1.
         21    1    1    2  505  502 -0.48440053098E+02 -0.15868805996E+02 -0.85285375193E+02  0.99357198882E+02  0.00000000000E+00 0. -1.
          2    1    1    2  501    0  0.11818823327E+03 -0.60079596054E+02  0.71160639987E+03  0.72385197705E+03  0.00000000000E+00 0.  1.
<scales pt_clust_3="42.28591" pt_clust_4="14000.00000" pt_clust_5="32.32937" pt_clust_6="132.49894"></scales>
<clustering>
<clus scale="   42.286">  2  3  1 -1</clus>
<clus scale="   32.329">  2  5  1 -1</clus>
<clus scale="  132.499">  1  6  2 -1</clus>
<clus scale="   42.286">  2  3  1 -1</clus>
</clustering>
</event>
<event>
 6    0  0.6851428E+002  0.2393785E+03  0.7546771E-02  0.1120208E+00
         21   -1    0    0  503  502  0.00000000000E+00  0.00000000000E+00  0.43172000110E+03  0.43172000110E+03  0.00000000000E+00 0. -1.
          1   -1    0    0  505    0 -0.00000000000E+00 -0.00000000000E+00 -0.51165127968E+03  0.51165127968E+03  0.00000000000E+00 0.  1.
         21    1    1    2  503  501 -0.19385514284E+03  0.92931886777E+02  0.10948938971E+03  0.24125521434E+03  0.00000000000E+00 0. -1.
         21    1    1    2  504  502  0.27022219136E+03 -0.41789075127E+02  0.16669769709E+03  0.32024128672E+03  0.00000000000E+00 0. -1.
         21    1    1    2  505  504 -0.31775161366E+02 -0.34572068964E+02 -0.38522927556E+02  0.60736354680E+02  0.00000000000E+00 0. -1.
          1    1    1    2  501    0 -0.44591887153E+02 -0.16570742686E+02 -0.31759543782E+03  0.32113842504E+03  0.00000000000E+00 0.  1.
<scales pt_clust_3="239.37848" pt_clust_4="14000.00000" pt_clust_5="46.95624" pt_clust_6="77.89348"></scales>
<clustering>
<clus scale="   46.956">  2  5  1 -1</clus>
<clus scale="   77.893">  2  6  1 -1</clus>
<clus scale="  239.378">  1  3  2 -1</clus>
<clus scale="  239.378">  1  3  2 -1</clus>
</clustering>
</event>
<event>
 6    0  0.6851428E+002  0.7439626E+02  0.7546771E-02  0.1345751E+00
         21   -1    0    0  505  502  0.00000000000E+00  0.00000000000E+00  0.47238910315E+03  0.47238910315E+03  0.00000000000E+00 0.  1.
          2   -1    0    0  503    0 -0.00000000000E+00 -0.00000000000E+00 -0.59221743103E+03  0.59221743103E+03  0.00000000000E+00 0.  1.
         21    1    1    2  503  502  0.37248749647E+02 -0.24190786441E+02  0.57279288097E+01  0.44782504032E+02  0.00000000000E+00 0. -1.
         21    1    1    2  504  501 -0.95276724365E+02 -0.38166540573E+02 -0.49239591588E+02  0.11383706077E+03  0.00000000000E+00 0. -1.
         21    1    1    2  505  504  0.38317689419E+02 -0.10202451123E+02  0.41099772033E+03  0.41290611699E+03  0.00000000000E+00 0.  1.
          2    1    1    2  501    0  0.19710285299E+02  0.72559778137E+02 -0.48731438542E+03  0.49308085239E+03  0.00000000000E+00 0.  1.
<scales pt_clust_3="60.38500" pt_clust_4="14000.00000" pt_clust_5="39.65268" pt_clust_6="74.39626"></scales>
<clustering>
<clus scale="   39.653">  1  5  2 -1</clus>
<clus scale="   60.385">  1  3  2 -1</clus>
<clus scale="   74.396">  2  6  1 -1</clus>
<clus scale="   39.653">  1  3  2 -1</clus>
</clustering>
</event>
<event>
 6    0  0.6851428E+002  0.9492397E+02  0.7546771E-02  0.1291347E+00
         21   -1    0    0  503  502  0.00000000000E+00  0.00000000000E+00  0.46133169294E+02  0.46133169294E+02  0.00000000000E+00 0. -1.
          2   -1    0    0  504    0 -0.00000000000E+00 -0.00000000000E+00 -0.29772612866E+04  0.29772612866E+04  0.00000000000E+00 0. -1.
         21    1    1    2  503  505 -0.11246623600E+01 -0.10254113821E+03 -0.99248211736E+02  0.14271004668E+03  0.00000000000E+00 0. -1.
         21    1    1    2  504  502 -0.38510365789E+02 -0.77212557758E+01 -0.33545577283E+01  0.39419780840E+02  0.00000000000E+00 0. -1.
         21    1    1    2  505  501  0.17385307302E+02  0.72881901566E+02 -0.22061344290E+03  0.23298993900E+03  0.00000000000E+00 0. -1.
          2    1    1    2  501    0  0.22249720847E+02  0.37380492422E+02 -0.26079119049E+04  0.26082746894E+04  0.00000000000E+00 0. -1.
<scales pt_clust_3="94.92397" pt_clust_4="39.27679" pt_clust_5="14000.00000" pt_clust_6="43.33160"></scales>
<clustering>
<clus scale="   39.277">  1  4  2 -1</clus>
<clus scale="   43.332">  2  6  1 -1</clus>
<clus scale="   94.924">  1  3  2 -1</clus>
<clus scale="   39.277">  1  3  2 -1</clus>
</clustering>
</event>
<event>
 6    0  0.6851428E+002  0.1418788E+03  0.7546771E-02  0.1210823E+00
         21   -1    0    0  504  502  0.00000000000E+00  0.00000000000E+00  0.12586745669E+04  0.12586745669E+04  0.00000000000E+00 0.  1.
          2   -1    0    0  503    0 -0.00000000000E+00 -0.00000000000E+00 -0.32578158092E+03  0.32578158092E+03  0.00000000000E+00 0. -1.
         21    1    1    2  503  505  0.43135041006E+02 -0.23477519440E+02 -0.19346247198E+02  0.52783548216E+02  0.00000000000E+00 0. -1.
         21    1    1    2  504  501 -0.46236241605E+02  0.68826332406E+02  0.11473806091E+04  0.11503725988E+04  0.00000000000E+00 0.  1.
         21    1    1    2  505  502 -0.12140730761E+02  0.64751266370E+02  0.68589729319E+02  0.95103495246E+02  0.00000000000E+00 0.  1.
          2    1    1    2  501    0  0.15241931359E+02 -0.11010007934E+03 -0.26373110519E+03  0.28619650554E+03  0.00000000000E+00 0. -1.
<scales pt_clust_3="49.11034" pt_clust_4="14000.00000" pt_clust_5="64.48352" pt_clust_6="141.87882"></scales>
<clustering>
<clus scale="   49.110">  2  3  1 -1</clus>
<clus scale="   64.484">  1  5  2 -1</clus>
<clus scale="  141.879">  2  6  1 -1</clus>
<clus scale="   64.484">  1  3  2 -1</clus>
</clustering>
</event>
<event>
 6    0  0.6851428E+002  0.1207076E+03  0.7546771E-02  0.1241934E+00
          1   -1    0    0  505    0 -0.00000000000E+00  0.00000000000E+00  0.60381577303E+03  0.60381577303E+03  0.00000000000E+00 0. -1.
         21   -1    0    0  503  502  0.00000000000E+00 -0.00000000000E+00 -0.48684045477E+03  0.48684045477E+03  0.00000000000E+00 0.  1.
         21    1    1    2  503  504 -0.31475991577E+02  0.25896120969E+02 -0.41766031000E+03  0.41964447057E+03  0.00000000000E+00 0.  1.
         21    1    1    2  504  501  0.15358292438E+02 -0.39458430953E+02  0.50884397640E+02  0.66197181534E+02  0.00000000000E+00 0. -1.
         21    1    1    2  505  502 -0.74293331847E+02 -0.70394783899E+02 -0.32784249749E+01  0.10239957435E+03  0.00000000000E+00 0.  1.
          1    1    1    2  501    0  0.90411030986E+02  0.83957093883E+02  0.48702965561E+03  0.50241500135E+03  0.00000000000E+00 0. -1.
<scales pt_clust_3="40.75963" pt_clust_4="38.41567" pt_clust_5="120.70759" pt_clust_6="14000.00000"></scales>
<clustering>
<clus scale="   40.760">  2  3  1 -1</clus>
<clus scale="   38.416">  2  4  1 -1</clus>
<clus scale="  120.708">  2  5  1 -1</clus>
<clus scale="   40.760">  2  3  1 -1</clus>
</clustering>
</event>
<event>
 6    0  0.6851428E+002  0.9992656E+02  0.7546771E-02  0.1280450E+00
         21   -1    0    0  505  502  0.00000000000E+00  0.00000000000E+00  0.38355466082E+03  0.38355466082E+03  0.00000000000E+00 0. -1.
          1   -1    0    0  504    0 -0.00000000000E+00 -0.00000000000E+00 -0.80919636476E+03  0.80919636476E+03  0.00000000000E+00 0.  1.
         21    1    1    2  503  502  0.10338110113E+03  0.80158815381E+01  0.24978693055E+03  0.27045409426E+03  0.00000000000E+00 0. -1.
         21    1    1    2  504  503  0.88859885290E+01  0.39031441772E+02  0.43306843460E+02  0.58973696929E+02  0.00000000000E+00 0. -1.
         21    1    1    2  505  501 -0.86777498974E+02 -0.28633476302E+02  0.42963402122E+02  0.10097556247E+03  0.00000000000E+00 0.  1.
          1    1    1    2  501    0 -0.25489590687E+02 -0.18413847009E+02 -0.76169888007E+03  0.76234767193E+03  0.00000000000E+00 0.  1.
<scales pt_clust_3="99.92656" pt_clust_4="36.27340" pt_clust_5="14000.00000" pt_clust_6="31.44502"></scales>
<clustering>
<clus scale="   31.445">  2  6  1 -1</clus>
<clus scale="   36.273">  2  4  1 -1</clus>
<clus scale="   99.927">  1  3  2 -1</clus>
<clus scale="   99.927">  1  3  2 -1</clus>
</clustering>
</event>
<event>
 6    0  0.6851428E+002  0.1305497E+03  0.7546771E-02  0.1226642E+00
         21   -1    0    0  504  502  0.00000000000E+00  0.00000000000E+00  0.10416749901E+03  0.10416749901E+03  0.00000000000E+00 0. -1.
          1   -1    0    0  503    0 -0.00000000000E+00 -0.00000000000E+00 -0.25460797993E+04  0.25460797993E+04  0.00000000000E+00 0. -1.
         21    1    1    2  503  505 -0.37778240982E+02 -0.54691475210E+02 -0.37333901524E+02  0.76237609848E+02  0.00000000000E+00 0. -1.
         21    1    1    2  504  501  0.11242182644E+03  0.30834503509E+02 -0.16892773190E+03  0.20524622353E+03  0.00000000000E+00 0.  1.
         21    1    1    2  505  502 -0.13741618098E+03  0.20774721432E+02 -0.69231722226E+01  0.13915001315E+03  0.00000000000E+00 0. -1.
          1    1    1    2  501    0  0.62772595521E+02  0.30822502694E+01 -0.22287274946E+04  0.22296134518E+04  0.00000000000E+00 0. -1.
<scales pt_clust_3="60.29018" pt_clust_4="130.54968" pt_clust_5="14000.00000" pt_clust_6="62.84822"></scales>
<clustering>
<clus scale="   62.848">  2  6  1 -1</clus>
<clus scale="   60.290">  2  3  1 -1</clus>
<clus scale="  130.550">  2  4  1 -1</clus>
<clus scale="  130.550">  1  3  2 -1</clus>
</clustering>
</event>
<event>
 6    0  0.6851428E+002  0.2029065E+03  0.7546771E-02  0.1147310E+00
         21   -1    0    0  503  502  0.00000000000E+00  0.00000000000E+00  0.34257611378E+03  0.34257611378E+03  0.00000000000E+00 0. -1.
          1   -1    0    0  505    0 -0.00000000000E+00 -0.00000000000E+00 -0.18586557334E+04  0.18586557334E+04  0.00000000000E+00 0.  1.
         21    1    1    2  503  501 -0.51213399065E+01  0.12114362048E+03 -0.11259136248E+03  0.16546546410E+03  0.00000000000E+00 0. -1.
         21    1    1    2  504  502  0.34432927711E+01 -0.22735936565E+03  0.26862178505E+03  0.35194005287E+03  0.00000000000E+00 0. -1.
         21    1    1    2  505  504 -0.29192066684E+02 -0.18540022164E+02 -0.93195346088E+03  0.93259485438E+03  0.00000000000E+00 0.  1.
          1    1    1    2  501    0  0.30870113819E+02  0.12475576734E+03 -0.74015658127E+03  0.75123147579E+03  0.00000000000E+00 0.  1.
<scales pt_clust_3="14000.00000" pt_clust_4="202.90653" pt_clust_5="34.58192" pt_clust_6="110.07903"></scales>
<clustering>
<clus scale="   34.582">  2  5  1 -1</clus>
<clus scale="  110.079">  2  6  1 -1</clus>
<clus scale="  202.907">  1  4  2 -1</clus>
<clus scale="  202.907">  1  3  2 -1</clus>
</clustering>
</event>
<event>
 6    0  0.6851428E+002  0.7535013E+02  0.7546771E-02  0.1342790E+00
         21   -1    0    0  504  502  0.00000000000E+00  0.00000000000E+00  0.20574158450E+03  0.20574158450E+03  0.00000000000E+00 0. -1.
          1   -1    0    0  503    0 -0.00000000000E+00 -0.00000000000E+00 -0.66450444003E+03  0.66450444003E+03  0.00000000000E+00 0.  1.
         21    1    1    2  503  505  0.41749358318E+02  0.86109710716E+00 -0.85523920757E+02  0.95174006062E+02  0.00000000000E+00 0. -1.
         21    1    1    2  504  501 -0.58361319867E+02  0.62808975361E+02 -0.25894227968E+01  0.85777130710E+02  0.00000000000E+00 0. -1.
         21    1    1    2  505  502  0.59320743545E+02  0.14706397421E+02  0.14951708462E+03  0.16152581012E+03  0.00000000000E+00 0. -1.
          1    1    1    2  501    0 -0.42708781997E+02 -0.78376469889E+02 -0.52016659660E+03  0.52776907764E+03  0.00000000000E+00 0.  1.
<scales pt_clust_3="41.75824" pt_clust_4="14000.00000" pt_clust_5="61.54253" pt_clust_6="75.35013"></scales>
<clustering>
<clus scale="   41.758">  2  3  1 -1</clus>
<clus scale="   61.543">  1  5  2 -1</clus>
<clus scale="   75.350">  2  6  1 -1</clus>
<clus scale="   61.543">  1  3  2 -1</clus>
</clustering>
</event>
<event>
 6    0  0.6851428E+002  0.9952418E+02  0.7546771E-02  0.1281300E+00
         21   -1    0    0  505  502  0.00000000000E+00  0.00000000000E+00  0.10721973005E+03  0.10721973005E+03  0.00000000000E+00 0.  1.
          2   -1    0    0  504    0 -0.00000000000E+00 -0.00000000000E+00 -0.26104833158E+04  0.26104833158E+04  0.00000000000E+00 0. -1.
         21    1    1    2  503  502  0.24786150618E+02  0.27576154749E+02  0.62736034412E+02  0.72873915683E+02  0.00000000000E+00 0.  1.
         21    1    1    2  504  503  0.98959357210E+02  0.10697340004E+02 -0.41838337215E+02  0.10797144958E+03  0.00000000000E+00 0.  1.
         21    1    1    2  505  501 -0.24448427686E+02 -0.31524735689E+02 -0.69171443274E+02  0.79851256354E+02  0.00000000000E+00 0. -1.
          2    1    1    2  501    0 -0.99297080142E+02 -0.67487590636E+01 -0.24549898397E+04  0.24570064243E+04  0.00000000000E+00 0. -1.
<scales pt_clust_3="37.07826" pt_clust_4="14000.00000" pt_clust_5="34.88579" pt_clust_6="99.52418"></scales>
<clustering>
<clus scale="   37.078">  1  3  2 -1</clus>
<clus scale="   34.886">  1  5  2 -1</clus>
<clus scale="   99.524">  2  6  1 -1</clus>
<clus scale="   37.078">  1  3  2 -1</clus>
</clustering>
</event>
<event>
 6    0  0.6851428E+002  0.1248468E+03  0.7546771E-02  0.1235309E+00
         21   -1    0    0  503  502  0.00000000000E+00  0.00000000000E+00  0.87200126927E+02  0.87200126927E+02  0.00000000000E+00 0. -1.
          2   -1    0    0  502    0 -0.00000000000E+00 -0.00000000000E+00 -0.68979488114E+03  0.68979488114E+03  0.00000000000E+00 0. -1.
         21    1    1    2  503  505  0.54749099297E+02 -0.29930446967E+02  0.15229030288E+01  0.62414860114E+02  0.00000000000E+00 0. -1.
         21    1    1    2  504  501  0.44018732902E+00  0.73595535222E+02 -0.36680146539E+02  0.82230953537E+02  0.00000000000E+00 0. -1.
         21    1    1    2  505  504 -0.43699421691E+02  0.69944423664E+02 -0.38123938037E+02  0.90858662269E+02  0.00000000000E+00 0. -1.
          2    1    1    2  501    0 -0.11489864935E+02 -0.11360951192E+03 -0.52931357266E+03  0.54149053214E+03  0.00000000000E+00 0. -1.
<scales pt_clust_3="62.39628" pt_clust_4="41.06021" pt_clust_5="41.06021" pt_clust_6="117.03610"></scales>
<clustering>
<clus scale="   41.060">  4  5 -1 -1</clus>
<clus scale="   62.396">  1  3  2 -1</clus>
<clus scale="  117.036">  2  6  1 -1</clus>
<clus scale="   62.396">  1  3  2 -1</clus>
</clustering>
</event>
<event>
 6    0  0.6851428E+002  0.2956771E+03  0.7546771E-02  0.1087422E+00
          4   -1    0    0  504    0 -0.00000000000E+00  0.00000000000E+00  0.12677025978E+04  0.12677025978E+04  0.00000000000E+00 0. -1.
         21   -1    0    0  505  502  0.00000000000E+00 -0.00000000000E+00 -0.12625392643E+04  0.12625392643E+04  0.00000000000E+00 0.  1.
         21    1    1    2  503  502 -0.20910556663E+03 -0.57633983016E+02  0.11363146450E+03  0.24486511332E+03  0.00000000000E+00 0. -1.
         21    1    1    2  504  503 -0.73952238088E+02 -0.57755818748E+02  0.11814931099E+03  0.15087719445E+03  0.00000000000E+00 0. -1.
         21    1    1    2  505  501  0.24887777036E+03  0.12363921218E+03 -0.11638704023E+04  0.11965872775E+04  0.00000000000E+00 0.  1.
          4    1    1    2  501    0  0.34180034353E+02 -0.82494104186E+01  0.93725296027E+03  0.93791227685E+03  0.00000000000E+00 0. -1.
<scales pt_clust_3="63.56555" pt_clust_4="63.56555" pt_clust_5="279.23433" pt_clust_6="35.16145"></scales>
<clustering>
<clus scale="   35.161">  1  6  2 -1</clus>
<clus scale="   63.566">  3  4 -1 -1</clus>
<clus scale="  279.234">  2  5  1 -1</clus>
<clus scale="  279.234">  2  3  1 -1</clus>
</clustering>
</event>
<event>
 6    0  0.6851428E+002  0.6369381E+02  0.7546771E-02  0.1382953E+00
         21   -1    0    0  505  502  0.00000000000E+00  0.00000000000E+00  0.67013838638E+02  0.67013838638E+02  0.00000000000E+00 0.  1.
          2   -1    0    0  504    0 -0.00000000000E+00 -0.00000000000E+00 -0.96026248279E+03  0.96026248279E+03  0.00000000000E+00 0.  1.
         21    1    1    2  503  501  0.80276353529E+02 -0.22547883153E+02 -0.32879080197E+03  0.33919919138E+03  0.00000000000E+00 0.  1.
         21    1    1    2  504  502 -0.38972292051E+02  0.46076181982E+02  0.30352106599E+02  0.67550754761E+02  0.00000000000E+00 0.  1.
         21    1    1    2  505  503 -0.27174973523E+02 -0.75998016949E+02 -0.13331288602E+03  0.15584127612E+03  0.00000000000E+00 0. -1.
          2    1    1    2  501    0 -0.14129087955E+02  0.52469718120E+02 -0.46149706277E+03  0.46468509917E+03  0.00000000000E+00 0.  1.
<scales pt_clust_3="63.69381" pt_clust_4="62.19383" pt_clust_5="14000.00000" pt_clust_6="54.33877"></scales>
<clustering>
<clus scale="   54.339">  2  6  1 -1</clus>
<clus scale="   62.194">  1  4  2 -1</clus>
<clus scale="   63.694">  2  3  1 -1</clus>
<clus scale="   62.194">  1  3  2 -1</clus>
</clustering>
</event>
<event>
 6    0  0.6851428E+002  0.7129531E+02  0.7546771E-02  0.1355743E+00
         21   -1    0    0  505  502  0.00000000000E+00  0.00000000000E+00  0.63285131722E+02  0.63285131722E+02  0.00000000000E+00 0. -1.
         -1   -1    0    0    0  501 -0.00000000000E+00 -0.00000000000E+00 -0.63892434988E+03  0.63892434988E+03  0.00000000000E+00 0.  1.
         21    1    1    2  503  502 -0.47114500395E+02 -0.41789721192E+02 -0.49824487944E+02  0.80303403064E+02  0.00000000000E+00 0.  1.
         21    1    1    2  504  501  0.32752368643E+02  0.20168094711E+02 -0.68966027610E+02  0.78966971959E+02  0.00000000000E+00 0.  1.
         21    1    1    2  505  504  0.10395160998E+03  0.31964736312E+02 -0.39105722882E+02  0.11557222481E+03  0.00000000000E+00 0. -1.
         -1    1    1    2    0  503 -0.89589478226E+02 -0.10343109830E+02 -0.41774297972E+03  0.42736688177E+03  0.00000000000E+00 0.  1.
<scales pt_clust_3="58.61931" pt_clust_4="38.46388" pt_clust_5="71.29531" pt_clust_6="14000.00000"></scales>
<clustering>
<clus scale="   38.464">  2  4  1 -1</clus>
<clus scale="   58.619">  1  3  2 -1</clus>
<clus scale="   71.295">  1  5  2 -1</clus>
<clus scale="   58.619">  1  3  2 -1</clus>
</clustering>
</event>
<event>
 6    0  0.6851428E+002  0.7200606E+02  0.7546771E-02  0.1353401E+00
          2   -1    0    0  505    0 -0.00000000000E+00  0.00000000000E+00  0.10331363391E+04  0.10331363391E+04  0.00000000000E+00 0. -1.
         21   -1    0    0  503  502  0.00000000000E+00 -0.00000000000E+00 -0.69000237908E+03  0.69000237908E+03  0.00000000000E+00 0.  1.
         21    1    1    2  503  504  0.59215144510E+02 -0.25544059254E+02 -0.42253127206E+03  0.42742438884E+03  0.00000000000E+00 0.  1.
         21    1    1    2  504  501 -0.73690422665E+02  0.10463842955E+02  0.18858641175E+02  0.76781630283E+02  0.00000000000E+00 0. -1.
         21    1    1    2  505  502  0.81569835634E+02  0.40923574377E+02 -0.22586623101E+03  0.24360609873E+03  0.00000000000E+00 0. -1.
          2    1    1    2  501    0 -0.67094557479E+02 -0.25843358078E+02  0.97267282190E+03  0.97532660030E+03  0.00000000000E+00 0. -1.
<scales pt_clust_3="64.48978" pt_clust_4="67.65593" pt_clust_5="72.00606" pt_clust_6="14000.00000"></scales>
<clustering>
<clus scale="   64.490">  2  3  1 -1</clus>
<clus scale="   67.656">  2  4  1 -1</clus>
<clus scale="   72.006">  2  5  1 -1</clus>
<clus scale="   64.490">  2  3  1 -1</clus>
</clustering>
</event>
<event>
 6    0  0.6851428E+002  0.8918029E+02  0.7546771E-02  0.1304849E+00
         21   -1    0    0  505  502  0.00000000000E+00  0.00000000000E+00  0.71493228570E+03  0.71493228570E+03  0.00000000000E+00 0.  1.
          2   -1    0    0  503    0 -0.00000000000E+00 -0.00000000000E+00 -0.10710660637E+04  0.10710660637E+04  0.00000000000E+00 0. -1.
         21    1    1    2  503  502  0.40905878599E+02 -0.33089804254E+02  0.64743292168E+03  0.64956725142E+03  0.00000000000E+00 0.  1.
         21    1    1    2  504  501 -0.81654739976E+02 -0.10460924332E+02 -0.76566456750E+02  0.11242486290E+03  0.00000000000E+00 0. -1.
         21    1    1    2  505  504 -0.44651693283E+02  0.75214140925E+02  0.49558705349E+01  0.87609938710E+02  0.00000000000E+00 0. -1.
          2    1    1    2  501    0  0.85400554659E+02 -0.31663412339E+02 -0.93195611346E+03  0.93639629635E+03  0.00000000000E+00 0. -1.
<scales pt_clust_3="52.61393" pt_clust_4="89.18029" pt_clust_5="54.60449" pt_clust_6="14000.00000"></scales>
<clustering>
<clus scale="   52.614">  1  3  2 -1</clus>
<clus scale="   54.604">  1  5  2 -1</clus>
<clus scale="   89.180">  1  4  2 -1</clus>
<clus scale="   52.614">  1  3  2 -1</clus>
</clustering>
</event>
<event>
 6    0  0.6851428E+002  0.7416127E+02  0.7546771E-02  0.1346488E+00
          1   -1    0    0  504    0 -0.00000000000E+00  0.00000000000E+00  0.17972344930E+03  0.17972344930E+03  0.00000000000E+00 0. -1.
         21   -1    0    0  505  502  0.00000000000E+00 -0.00000000000E+00 -0.27050345836E+03  0.27050345836E+03  0.00000000000E+00 0.  1.
         21    1    1    2  503  502  0.37674679821E+02 -0.90774764141E+01 -0.99115287228E+01  0.40000255990E+02  0.00000000000E+00 0. -1.
         21    1    1    2  504  503 -0.26529452379E+02 -0.48839608251E+02  0.14769883667E+02  0.57508857067E+02  0.00000000000E+00 0.  1.
         21    1    1    2  505  501 -0.99588811199E+02  0.35088744198E+02 -0.19251438155E+03  0.21956989408E+03  0.00000000000E+00 0.  1.
          1    1    1    2  501    0  0.88443583757E+02  0.22828340468E+02  0.96876017547E+02  0.13314790052E+03  0.00000000000E+00 0. -1.
<scales pt_clust_3="38.75283" pt_clust_4="54.80595" pt_clust_5="74.16127" pt_clust_6="14000.00000"></scales>
<clustering>
<clus scale="   38.753">  2  3  1 -1</clus>
<clus scale="   54.806">  1  4  2 -1</clus>
<clus scale="   74.161">  2  5  1 -1</clus>
<clus scale="   38.753">  2  3  1 -1</clus>
</clustering>
</event>
<event>
 6    0  0.6851428E+002  0.8411665E+02  0.7546771E-02  0.1317759E+00
         21   -1    0    0  505  502  0.00000000000E+00  0.00000000000E+00  0.42053517799E+03  0.42053517799E+03  0.00000000000E+00 0. -1.
         -2   -1    0    0    0  501 -0.00000000000E+00 -0.00000000000E+00 -0.28597782876E+03  0.28597782876E+03  0.00000000000E+00 0. -1.
         21    1    1    2  503  504  0.82375119743E+02 -0.11159768756E+02  0.10968719636E+03  0.13762805614E+03  0.00000000000E+00 0. -1.
         21    1    1    2  504  502 -0.75580708846E+02 -0.76373030622E+02  0.24731042693E+03  0.26964371052E+03  0.00000000000E+00 0. -1.
         21    1    1    2  505  501 -0.25563197520E+01  0.36493164500E+02  0.26445667375E+02  0.45140438066E+02  0.00000000000E+00 0.  1.
         -2    1    1    2    0  503 -0.42380911452E+01  0.51039634878E+02 -0.24888594144E+03  0.25410080202E+03  0.00000000000E+00 0. -1.
<scales pt_clust_3="14000.00000" pt_clust_4="84.11665" pt_clust_5="36.58259" pt_clust_6="51.46319"></scales>
<clustering>
<clus scale="   36.583">  1  5  2 -1</clus>
<clus scale="   51.463">  2  6  1 -1</clus>
<clus scale="   84.117">  1  4  2 -1</clus>
<clus scale="   36.583">  1  3  2 -1</clus>
</clustering>
</event>
<event>
 6    0  0.6851428E+002  0.1514590E+03  0.7546771E-02  0.1198692E+00
         21   -1    0    0  501  502  0.00000000000E+00  0.00000000000E+00  0.26794986512E+02  0.26794986512E+02  0.00000000000E+00 0. -1.
          1   -1    0    0  505    0 -0.00000000000E+00 -0.00000000000E+00 -0.28945169434E+04  0.28945169434E+04  0.00000000000E+00 0. -1.
         21    1    1    2  503  502 -0.12365855662E+02  0.33867072202E+02 -0.35161778819E+02  0.50361132389E+02  0.00000000000E+00 0. -1.
         21    1    1    2  504  503  0.25660226909E+02  0.49459836758E+02 -0.72077274418E+02  0.91103546499E+02  0.00000000000E+00 0. -1.
         21    1    1    2  505  504  0.12531895857E+03  0.17068845817E+02 -0.63427385364E+03  0.64676078135E+03  0.00000000000E+00 0. -1.
          1    1    1    2  501    0 -0.13861332982E+03 -0.10039575478E+03 -0.21262090501E+04  0.21330864697E+04  0.00000000000E+00 0. -1.
<scales pt_clust_3="30.01093" pt_clust_4="92.26072" pt_clust_5="14000.00000" pt_clust_6="151.45903"></scales>
<clustering>
<clus scale="   30.011">  3  4 -1 -1</clus>
<clus scale="   92.261">  1  3  2 -1</clus>
<clus scale="  151.459">  2  6  1 -1</clus>
<clus scale="   92.261">  1  3  2 -1</clus>
</clustering>
</event>
<event>
 6    0  0.6851428E+002  0.7753671E+02  0.7546771E-02  0.1336191E+00
         21   -1    0    0  505  502  0.00000000000E+00  0.00000000000E+00  0.51423856454E+03  0.51423856454E+03  0.00000000000E+00 0. -1.
          1   -1    0    0  503    0 -0.00000000000E+00 -0.00000000000E+00 -0.69050752072E+02  0.69050752072E+02  0.00000000000E+00 0.  1.
         21    1    1    2  503  502 -0.33652231202E+02  0.51645693973E+02  0.12024430945E+03  0.13512381110E+03  0.00000000000E+00 0. -1.
         21    1    1    2  504  501 -0.51482621814E+02 -0.21287632685E+02  0.46071772539E+02  0.72292682058E+02  0.00000000000E+00 0.  1.
         21    1    1    2  505  504  0.11488500716E+03 -0.82261343897E+01  0.30792843348E+03  0.32876458797E+03  0.00000000000E+00 0. -1.
          1    1    1    2  501    0 -0.29750154147E+02 -0.22131926899E+02 -0.29056703010E+02  0.47108235478E+02  0.00000000000E+00 0.  1.
<scales pt_clust_3="61.73282" pt_clust_4="77.53671" pt_clust_5="14000.00000" pt_clust_6="37.07956"></scales>
<clustering>
<clus scale="   37.080">  2  6  1 -1</clus>
<clus scale="   61.733">  1  3  2 -1</clus>
<clus scale="   77.537">  2  4  1 -1</clus>
<clus scale="   61.733">  1  3  2 -1</clus>
</clustering>
</event>
<event>
 6    0  0.6851428E+002  0.2147600E+03  0.7546771E-02  0.1137851E+00
         21   -1    0    0  504  502  0.00000000000E+00  0.00000000000E+00  0.48804301783E+03  0.48804301783E+03  0.00000000000E+00 0.  1.
          3   -1    0    0  505    0 -0.00000000000E+00 -0.00000000000E+00 -0.37794072090E+03  0.37794072090E+03  0.00000000000E+00 0. -1.
         21    1    1    2  503  502  0.52524611896E+02  0.63187387558E+02  0.12493421207E+03  0.14953273269E+03  0.00000000000E+00 0.  1.
         21    1    1    2  504  501  0.11078476228E+03 -0.17137599469E+03  0.16172496130E+03  0.26038041058E+03  0.00000000000E+00 0.  1.
         21    1    1    2  505  503 -0.19591067703E+03  0.16812288042E+03  0.90531343528E+01  0.25831812855E+03  0.00000000000E+00 0.  1.
          3    1    1    2  501    0  0.32601302858E+02 -0.59934273290E+02 -0.18561001079E+03  0.19775246691E+03  0.00000000000E+00 0. -1.
<scales pt_clust_3="80.60880" pt_clust_4="214.76005" pt_clust_5="14000.00000" pt_clust_6="68.22728"></scales>
<clustering>
<clus scale="   68.227">  2  6  1 -1</clus>
<clus scale="   80.609">  1  3  2 -1</clus>
<clus scale="  214.760">  1  4  2 -1</clus>
<clus scale="   80.609">  1  3  2 -1</clus>
</clustering>
</event>
<event>
 6    0  0.6851428E+002  0.1016815E+03  0.7546771E-02  0.1276799E+00
         -2   -1    0    0    0  501 -0.00000000000E+00  0.00000000000E+00  0.17486186103E+04  0.17486186103E+04  0.00000000000E+00 0. -1.
         21   -1    0    0  503  502  0.00000000000E+00 -0.00000000000E+00 -0.97824808305E+02  0.97824808305E+02  0.00000000000E+00 0. -1.
         21    1    1    2  503  504  0.54651475156E+02  0.38379829385E+02  0.29982757953E+03  0.30717482398E+03  0.00000000000E+00 0. -1.
         21    1    1    2  504  501 -0.70557294932E+00  0.47019998650E+02  0.27138769808E+03  0.27543177154E+03  0.00000000000E+00 0. -1.
         21    1    1    2  505  502  0.25021106888E+02 -0.52081030001E+02 -0.81332047438E+02  0.99766684902E+02  0.00000000000E+00 0. -1.
         -2    1    1    2    0  505 -0.78967009095E+02 -0.33318798034E+02  0.11609105718E+04  0.11640701382E+04  0.00000000000E+00 0. -1.
<scales pt_clust_3="45.50194" pt_clust_4="45.50194" pt_clust_5="57.77966" pt_clust_6="86.01666"></scales>
<clustering>
<clus scale="   45.502">  3  4 -1 -1</clus>
<clus scale="   57.780">  2  5  1 -1</clus>
<clus scale="   86.017">  1  6  2 -1</clus>
<clus scale="   57.780">  2  3  1 -1</clus>
</clustering>
</event>
<event>
 6    0  0.6851428E+002  0.8841224E+02  0.7546771E-02  0.1306743E+00
          2   -1    0    0  505    0 -0.00000000000E+00  0.00000000000E+00  0.15977278361E+04  0.15977278361E+04  0.00000000000E+00 0.  1.
         21   -1    0    0  504  502  0.00000000000E+00 -0.00000000000E+00 -0.44946415792E+03  0.44946415792E+03  0.00000000000E+00 0. -1.
         21    1    1    2  503  502  0.36539958853E+02 -0.30280052874E+02 -0.40594637755E+03  0.40871079217E+03  0.00000000000E+00 0. -1.
         21    1    1    2  504  501  0.55458415692E+02  0.22532716990E+02 -0.13795754387E+02  0.61430302336E+02  0.00000000000E+00 0.  1.
         21    1    1    2  505  503  0.43382099819E+01  0.49920327036E+02  0.25735344899E+03  0.26218630174E+03  0.00000000000E+00 0.  1.
          2    1    1    2  501    0 -0.96336584526E+02 -0.42172991152E+02  0.13106523612E+04  0.13148645978E+04  0.00000000000E+00 0.  1.
<scales pt_clust_3="47.45577" pt_clust_4="14000.00000" pt_clust_5="48.61144" pt_clust_6="88.41224"></scales>
<clustering>
<clus scale="   47.456">  2  3  1 -1</clus>
<clus scale="   48.611">  1  5  2 -1</clus>
<clus scale="   88.412">  1  6  2 -1</clus>
<clus scale="   47.456">  2  3  1 -1</clus>
</clustering>
</event>
<event>
 6    0  0.6851428E+002  0.2032128E+03  0.7546771E-02  0.1147056E+00
          1   -1    0    0  504    0 -0.00000000000E+00  0.00000000000E+00  0.10960449392E+04  0.10960449392E+04  0.00000000000E+00 0. -1.
         21   -1    0    0  503  502  0.00000000000E+00 -0.00000000000E+00 -0.32618298148E+03  0.32618298148E+03  0.00000000000E+00 0.  1.
         21    1    1    2  503  505 -0.79777873631E+00  0.73496822539E+02 -0.35714291078E+02  0.81718602297E+02  0.00000000000E+00 0.  1.
         21    1    1    2  504  502  0.18543082965E+02 -0.26652685713E+02 -0.70002461264E+02  0.77165770680E+02  0.00000000000E+00 0. -1.
         21    1    1    2  505  501 -0.86545152593E+02  0.12773932447E+03 -0.15329284266E+03  0.21749964152E+03  0.00000000000E+00 0.  1.
          1    1    1    2  501    0  0.68799848364E+02 -0.17458346129E+03  0.10288715527E+04  0.10458439062E+04  0.00000000000E+00 0. -1.
<scales pt_clust_3="54.18105" pt_clust_4="32.46862" pt_clust_5="54.18105" pt_clust_6="188.71238"></scales>
<clustering>
<clus scale="   32.469">  2  4  1 -1</clus>
<clus scale="   54.181">  3  5 -1 -1</clus>
<clus scale="  188.712">  1  6  2 -1</clus>
<clus scale="   32.469">  2  3  1 -1</clus>
</clustering>
</event>
<event>
 6    0  0.6851428E+002  0.2763409E+03  0.7546771E-02  0.1097704E+00
          1   -1    0    0  503    0 -0.00000000000E+00  0.00000000000E+00  0.17481982122E+04  0.17481982122E+04  0.00000000000E+00 0.  1.
         21   -1    0    0  501  502  0.00000000000E+00 -0.00000000000E+00 -0.34044269828E+03  0.34044269828E+03  0.00000000000E+00 0.  1.
         21    1    1    2  503  505 -0.12557231565E+03 -0.12522211223E+03 -0.47799495318E+02  0.18366756818E+03  0.00000000000E+00 0.  1.
         21    1    1    2  504  502 -0.45573131117E+02  0.90908157789E+01 -0.15573391136E+03  0.16251955070E+03  0.00000000000E+00 0.  1.
         21    1    1    2  505  504 -0.66067701968E+02 -0.12741977998E+02 -0.33844608922E+02  0.75317705752E+02  0.00000000000E+00 0.  1.
          1    1    1    2  501    0  0.23721314873E+03  0.12887327445E+03  0.16451335295E+04  0.16671360858E+04  0.00000000000E+00 0.  1.
<scales pt_clust_3="41.99269" pt_clust_4="46.47099" pt_clust_5="41.99269" pt_clust_6="267.79967"></scales>
<clustering>
<clus scale="   41.993">  3  5 -1 -1</clus>
<clus scale="   46.471">  2  4  1 -1</clus>
<clus scale="  267.800">  1  6  2 -1</clus>
<clus scale="   46.471">  2  3  1 -1</clus>
</clustering>
</event>
<event>
 6    0  0.6851428E+002  0.9889892E+02  0.7546771E-02  0.1282629E+00
          2   -1    0    0  505    0 -0.00000000000E+00  0.00000000000E+00  0.16010407573E+04  0.16010407573E+04  0.00000000000E+00 0.  1.
         21   -1    0    0  504  502  0.00000000000E+00 -0.00000000000E+00 -0.24335119617E+03  0.24335119617E+03  0.00000000000E+00 0. -1.
         21    1    1    2  503  502  0.25838922243E+02  0.38132380922E+02 -0.21271190008E+02  0.50736494772E+02  0.00000000000E+00 0. -1.
         21    1    1    2  504  501  0.10529869632E+03 -0.80246509989E+00 -0.15229604053E+03  0.18515545727E+03  0.00000000000E+00 0. -1.
         21    1    1    2  505  503 -0.40176448087E+02 -0.76191445413E+02  0.13101757490E+02  0.87125997179E+02  0.00000000000E+00 0. -1.
          2    1    1    2  501    0 -0.90961170479E+02  0.38861529591E+02  0.15181550342E+04  0.15213740043E+04  0.00000000000E+00 0.  1.
<scales pt_clust_3="46.06222" pt_clust_4="98.89892" pt_clust_5="77.96822" pt_clust_6="14000.00000"></scales>
<clustering>
<clus scale="   46.062">  2  3  1 -1</clus>
<clus scale="   77.968">  2  5  1 -1</clus>
<clus scale="   98.899">  2  4  1 -1</clus>
<clus scale="   46.062">  2  3  1 -1</clus>
</clustering>
</event>
<event>
 6    0  0.7954906E+002  0.1072352E+03  0.7546771E-02  0.1265777E+00
          2   -1    0    0  503    0 -0.00000000000E+00  0.00000000000E+00  0.34358280505E+04  0.34358280505E+04  0.00000000000E+00 0. -1.
         21   -1    0    0  505  502  0.00000000000E+00 -0.00000000000E+00 -0.22806070291E+03  0.22806070291E+03  0.00000000000E+00 0.  1.
         21    1    1    2  503  504  0.38078614572E+02 -0.19338593444E+02  0.23460212500E+02  0.48727237298E+02  0.00000000000E+00 0.  1.
         21    1    1    2  504  502 -0.30062972920E+02 -0.21675279348E+02 -0.28534399394E+02  0.46774052897E+02  0.00000000000E+00 0.  1.
         21    1    1    2  505  501  0.18151787501E+02 -0.63186064996E+02 -0.17081315698E+03  0.18302759572E+03  0.00000000000E+00 0.  1.
          2    1    1    2  501    0 -0.26167429153E+02  0.10419993779E+03  0.33836546914E+04  0.33853598675E+04  0.00000000000E+00 0. -1.
<scales pt_clust_3="41.63800" pt_clust_4="37.06211" pt_clust_5="14000.00000" pt_clust_6="107.23524"></scales>
<clustering>
<clus scale="   37.062">  2  4  1 -1</clus>
<clus scale="   41.638">  2  3  1 -1</clus>
<clus scale="  107.235">  1  6  2 -1</clus>
<clus scale="   37.062">  2  3  1 -1</clus>
</clustering>
</event>
<event>
 6    0  0.6851428E+002  0.1347880E+03  0.7546771E-02  0.1220519E+00
          4   -1    0    0  503    0 -0.00000000000E+00  0.00000000000E+00  0.27728808602E+03  0.27728808602E+03  0.00000000000E+00 0. -1.
         21   -1    0    0  501  502  0.00000000000E+00 -0.00000000000E+00 -0.11864563211E+04  0.11864563211E+04  0.00000000000E+00 0. -1.
         21    1    1    2  503  505  0.53993870901E+01 -0.16483569935E+03 -0.32289986231E+03  0.36258003564E+03  0.00000000000E+00 0. -1.
         21    1    1    2  504  502 -0.27248821388E+02  0.16514704854E+02 -0.97608141597E+02  0.10267708142E+03  0.00000000000E+00 0. -1.
         21    1    1    2  505  504 -0.35372426843E+02  0.10617470818E+03 -0.73429713089E+03  0.74277624738E+03  0.00000000000E+00 0. -1.
          4    1    1    2  501    0  0.57221861141E+02  0.42146286316E+02  0.24563689973E+03  0.25571104268E+03  0.00000000000E+00 0. -1.
<scales pt_clust_3="14000.00000" pt_clust_4="31.86273" pt_clust_5="134.78804" pt_clust_6="71.01174"></scales>
<clustering>
<clus scale="   31.863">  2  4  1 -1</clus>
<clus scale="   71.012">  1  6  2 -1</clus>
<clus scale="  134.788">  2  5  1 -1</clus>
<clus scale="   31.863">  2  3  1 -1</clus>
</clustering>
</event>
<event>
 6    0  0.6851428E+002  0.8786262E+02  0.7546771E-02  0.1308112E+00
          2   -1    0    0  504    0 -0.00000000000E+00  0.00000000000E+00  0.10424453909E+04  0.10424453909E+04  0.00000000000E+00 0. -1.
         21   -1    0    0  505  502  0.00000000000E+00 -0.00000000000E+00 -0.87327135240E+03  0.87327135240E+03  0.00000000000E+00 0. -1.
         21    1    1    2  503  502  0.90504352760E+02  0.46983117899E+00 -0.65551974885E+03  0.66173816554E+03  0.00000000000E+00 0. -1.
         21    1    1    2  504  503 -0.42227367274E+02  0.22083092219E+02  0.94421213761E+01  0.48579493255E+02  0.00000000000E+00 0. -1.
         21    1    1    2  505  501 -0.72647878992E+02 -0.63549398142E+02 -0.18252975805E+03  0.20647845626E+03  0.00000000000E+00 0. -1.
          2    1    1    2  501    0  0.24370893506E+02  0.40996474743E+02  0.99778142405E+03  0.99892062827E+03  0.00000000000E+00 0. -1.
<scales pt_clust_3="14000.00000" pt_clust_4="47.65305" pt_clust_5="87.86262" pt_clust_6="65.07286"></scales>
<clustering>
<clus scale="   47.653">  1  4  2 -1</clus>
<clus scale="   65.073">  1  6  2 -1</clus>
<clus scale="   87.863">  1  5  2 -1</clus>
<clus scale="   87.863">  2  3  1 -1</clus>
</clustering>
</event>
<event>
 6    0  0.6851428E+002  0.1902347E+03  0.7546771E-02  0.1158250E+00
          1   -1    0    0  504    0 -0.00000000000E+00  0.00000000000E+00  0.30512365366E+04  0.30512365366E+04  0.00000000000E+00 0.  1.
         21   -1    0    0  503  502  0.00000000000E+00 -0.00000000000E+00 -0.37764504727E+02  0.37764504727E+02  0.00000000000E+00 0.  1.
         21    1    1    2  503  501  0.55772584145E+02 -0.21101626014E+02  0.29502443971E+02  0.66530098173E+02  0.00000000000E+00 0.  1.
         21    1    1    2  504  505 -0.32451471134E+02 -0.19353034001E+03  0.96180566917E+03  0.98161970016E+03  0.00000000000E+00 0.  1.
         21    1    1    2  505  502 -0.33197441923E+02  0.27023620877E+02  0.90938277127E+02  0.10050928555E+03  0.00000000000E+00 0.  1.
          1    1    1    2  501    0  0.98763289117E+01  0.18760834514E+03  0.19312256416E+04  0.19403419574E+04  0.00000000000E+00 0.  1.
<scales pt_clust_3="37.60677" pt_clust_4="190.23466" pt_clust_5="42.80591" pt_clust_6="14000.00000"></scales>
<clustering>
<clus scale="   42.806">  2  5  1 -1</clus>
<clus scale="   37.607">  2  3  1 -1</clus>
<clus scale="  190.235">  2  4  1 -1</clus>
<clus scale="   42.806">  2  3  1 -1</clus>
</clustering>
</event>
<event>
 6    0  0.6851428E+002  0.8121422E+02  0.7546771E-02  0.1325641E+00
         21   -1    0    0  504  502  0.00000000000E+00  0.00000000000E+00  0.24465629322E+03  0.24465629322E+03  0.00000000000E+00 0. -1.
          2   -1    0    0  503    0 -0.00000000000E+00 -0.00000000000E+00 -0.63859895380E+03  0.63859895380E+03  0.00000000000E+00 0. -1.
         21    1    1    2  503  502 -0.16055751397E+02  0.83221214082E+02  0.16387718603E+03  0.18449739761E+03  0.00000000000E+00 0. -1.
         21    1    1    2  504  505  0.63669731381E+02 -0.61637536661E+01 -0.10943858326E+02  0.64896799524E+02  0.00000000000E+00 0. -1.
         21    1    1    2  505  501  0.21014445413E+02 -0.83437648792E+02 -0.34824362649E+01  0.86113735921E+02  0.00000000000E+00 0. -1.
          2    1    1    2  501    0 -0.68628425398E+02  0.63801883756E+01 -0.54339355201E+03  0.54774731396E+03  0.00000000000E+00 0. -1.
<scales pt_clust_3="81.21422" pt_clust_4="63.96739" pt_clust_5="14000.00000" pt_clust_6="68.28467"></scales>
<clustering>
<clus scale="   63.967">  1  4  2 -1</clus>
<clus scale="   68.285">  2  6  1 -1</clus>
<clus scale="   81.214">  1  3  2 -1</clus>
<clus scale="   63.967">  1  3  2 -1</clus>
</clustering>
</event>
<event>
 6    0  0.6851428E+002  0.1507618E+03  0.7546771E-02  0.1199540E+00
          2   -1    0    0  503    0 -0.00000000000E+00  0.00000000000E+00  0.25265840434E+04  0.25265840434E+04  0.00000000000E+00 0. -1.
         21   -1    0    0  504  502  0.00000000000E+00 -0.00000000000E+00 -0.12033631918E+03  0.12033631918E+03  0.00000000000E+00 0. -1.
         21    1    1    2  503  505 -0.70229005700E+02  0.11455675455E+03  0.79515561996E+02  0.15613483870E+03  0.00000000000E+00 0. -1.
         21    1    1    2  504  501  0.25695783262E+02 -0.14850230250E+03  0.27804537550E+03  0.31626324156E+03  0.00000000000E+00 0.  1.
         21    1    1    2  505  502 -0.21919927070E+01  0.57336385993E+02 -0.49442853384E+02  0.75742073787E+02  0.00000000000E+00 0. -1.
          2    1    1    2  501    0  0.46725215145E+02 -0.23390838050E+02  0.20981296402E+04  0.20987802086E+04  0.00000000000E+00 0. -1.
<scales pt_clust_3="14000.00000" pt_clust_4="150.76184" pt_clust_5="56.62302" pt_clust_6="52.25301"></scales>
<clustering>
<clus scale="   52.253">  1  6  2 -1</clus>
<clus scale="   56.623">  2  5  1 -1</clus>
<clus scale="  150.762">  1  4  2 -1</clus>
<clus scale="   56.623">  2  3  1 -1</clus>
</clustering>
</event>
<event>
 6    0  0.6851428E+002  0.2043671E+03  0.7546771E-02  0.1146106E+00
         21   -1    0    0  503  502  0.00000000000E+00  0.00000000000E+00  0.71223687252E+03  0.71223687252E+03  0.00000000000E+00 0. -1.
          1   -1    0    0  504    0 -0.00000000000E+00 -0.00000000000E+00 -0.18160615120E+03  0.18160615120E+03  0.00000000000E+00 0.  1.
         21    1    1    2  503  505 -0.31516587958E+02  0.15889372474E+03  0.37170595662E+03  0.40546988700E+03  0.00000000000E+00 0. -1.
         21    1    1    2  504  502  0.29234668649E+02 -0.14649839061E+02  0.88008856433E+02  0.93887392371E+02  0.00000000000E+00 0.  1.
         21    1    1    2  505  501 -0.54608966148E+02  0.29314968526E+02  0.17403425223E+03  0.18474151540E+03  0.00000000000E+00 0. -1.
          1    1    1    2  501    0  0.56890885457E+02 -0.17355885420E+03 -0.10311834395E+03  0.20974422895E+03  0.00000000000E+00 0.  1.
<scales pt_clust_3="51.80261" pt_clust_4="32.69990" pt_clust_5="51.80261" pt_clust_6="184.63186"></scales>
<clustering>
<clus scale="   32.700">  1  4  2 -1</clus>
<clus scale="   51.803">  3  5 -1 -1</clus>
<clus scale="  184.632">  2  6  1 -1</clus>
<clus scale="   32.700">  1  3  2 -1</clus>
</clustering>
</event>
<event>
 6    0  0.6851428E+002  0.1166058E+03  0.7546771E-02  0.1248804E+00
         -1   -1    0    0    0  501 -0.00000000000E+00  0.00000000000E+00  0.10869740475E+03  0.10869740475E+03  0.00000000000E+00 0.  1.
         21   -1    0    0  501  502  0.00000000000E+00 -0.00000000000E+00 -0.21537284603E+03  0.21537284603E+03  0.00000000000E+00 0.  1.
         21    1    1    2  503  504  0.16562265276E+02 -0.54496039730E+02 -0.29732053734E+02  0.64250463007E+02  0.00000000000E+00 0.  1.
         21    1    1    2  504  502 -0.40711172783E+02 -0.42514425852E+02 -0.36234087658E+02  0.69121524168E+02  0.00000000000E+00 0.  1.
         21    1    1    2  505  503  0.29882030189E+02 -0.22000746457E+02 -0.59453729762E+02  0.70083625445E+02  0.00000000000E+00 0.  1.
         -1    1    1    2    0  505 -0.57331226821E+01  0.11901121204E+03  0.18744429876E+02  0.12061463816E+03  0.00000000000E+00 0.  1.
<scales pt_clust_3="36.83589" pt_clust_4="58.86320" pt_clust_5="36.83589" pt_clust_6="107.30423"></scales>
<clustering>
<clus scale="   36.836">  3  5 -1 -1</clus>
<clus scale="   58.863">  2  4  1 -1</clus>
<clus scale="  107.304">  1  6  2 -1</clus>
<clus scale="   58.863">  2  3  1 -1</clus>
</clustering>
</event>
<event>
 6    0  0.6851428E+002  0.9901321E+02  0.7546771E-02  0.1282385E+00
         21   -1    0    0  503  502  0.00000000000E+00  0.00000000000E+00  0.56131455738E+03  0.56131455738E+03  0.00000000000E+00 0.  1.
          3   -1    0    0  505    0 -0.00000000000E+00 -0.00000000000E+00 -0.51655438379E+03  0.51655438379E+03  0.00000000000E+00 0.  1.
         21    1    1    2  503  501 -0.52964333181E+02 -0.28234419448E+02  0.42689988945E+03  0.43109850226E+03  0.00000000000E+00 0.  1.
         21    1    1    2  504  502 -0.31809646471E+02 -0.27390926632E+02  0.41450510396E+02  0.58993739350E+02  0.00000000000E+00 0.  1.
         21    1    1    2  505  504 -0.14746041341E+02  0.58478430069E+02  0.65278291256E+02  0.88873099574E+02  0.00000000000E+00 0. -1.
          3    1    1    2  501    0  0.99520020993E+02 -0.28530839901E+01 -0.48886851752E+03  0.49890360000E+03  0.00000000000E+00 0.  1.
<scales pt_clust_3="99.01321" pt_clust_4="41.97757" pt_clust_5="57.75472" pt_clust_6="14000.00000"></scales>
<clustering>
<clus scale="   41.978">  1  4  2 -1</clus>
<clus scale="   57.755">  1  5  2 -1</clus>
<clus scale="   99.013">  1  3  2 -1</clus>
<clus scale="   41.978">  1  3  2 -1</clus>
</clustering>
</event>
<event>
 6    0  0.6851428E+002  0.1489892E+03  0.7546771E-02  0.1201721E+00
          2   -1    0    0  502    0 -0.00000000000E+00  0.00000000000E+00  0.23877280913E+04  0.23877280913E+04  0.00000000000E+00 0.  1.
         21   -1    0    0  505  502  0.00000000000E+00 -0.00000000000E+00 -0.39996240937E+02  0.39996240937E+02  0.00000000000E+00 0.  1.
         21    1    1    2  503  504 -0.49983039851E+02  0.26166107488E+02  0.10627773638E+03  0.12032425650E+03  0.00000000000E+00 0. -1.
         21    1    1    2  504  501 -0.45588722391E+02 -0.23065753574E+02  0.11278636724E+03  0.12381892114E+03  0.00000000000E+00 0. -1.
         21    1    1    2  505  503 -0.53232932746E+02  0.15634430303E+02  0.62064024090E+01  0.55827412357E+02  0.00000000000E+00 0.  1.
          2    1    1    2  501    0  0.14880469499E+03 -0.18734784217E+02  0.21224613444E+04  0.21277537423E+04  0.00000000000E+00 0.  1.
<scales pt_clust_3="47.32600" pt_clust_4="47.32600" pt_clust_5="55.48135" pt_clust_6="140.44412"></scales>
<clustering>
<clus scale="   47.326">  3  4 -1 -1</clus>
<clus scale="   55.481">  2  5  1 -1</clus>
<clus scale="  140.444">  1  6  2 -1</clus>
<clus scale="   55.481">  2  3  1 -1</clus>
</clustering>
</event>
<event>
 6    0  0.6851428E+002  0.2226776E+03  0.7546771E-02  0.1131902E+00
         21   -1    0    0  503  502  0.00000000000E+00  0.00000000000E+00  0.16607994746E+03  0.16607994746E+03  0.00000000000E+00 0. -1.
          1   -1    0    0  504    0 -0.00000000000E+00 -0.00000000000E+00 -0.88398717712E+03  0.88398717712E+03  0.00000000000E+00 0. -1.
         21    1    1    2  503  501  0.19959491084E+03  0.38548469772E+02 -0.29669227607E+03  0.35965319355E+03  0.00000000000E+00 0. -1.
         21    1    1    2  504  505 -0.28503953863E+02  0.23712772641E+02 -0.11917162293E+02  0.38945984764E+02  0.00000000000E+00 0. -1.
         21    1    1    2  505  502 -0.18453056790E+03  0.94759087217E+00  0.47155656657E+02  0.19046281625E+03  0.00000000000E+00 0. -1.
          1    1    1    2  501    0  0.13439610925E+02 -0.63208833285E+02 -0.45645344795E+03  0.46100513001E+03  0.00000000000E+00 0. -1.
<scales pt_clust_3="210.21536" pt_clust_4="32.92369" pt_clust_5="32.92369" pt_clust_6="64.62182"></scales>
<clustering>
<clus scale="   32.924">  4  5 -1 -1</clus>
<clus scale="   64.622">  2  6  1 -1</clus>
<clus scale="  210.215">  2  3  1 -1</clus>
<clus scale="  222.678">  1  3  2 -1</clus>
</clustering>
</event>
