<event>
 6    0  0.1555973E+002  0.1121950E+03  0.7546771E-02  0.1256558E+00
         21   -1    0    0  506  501  0.00000000000E+00  0.00000000000E+00  0.11769609829E+03  0.11769609829E+03  0.00000000000E+00 0.  1.
         21   -1    0    0  503  502 -0.00000000000E+00 -0.00000000000E+00 -0.86975882321E+03  0.86975882321E+03  0.00000000000E+00 0. -1.
         21    1    1    2  503  505 -0.23360225506E+02  0.11649607744E+03 -0.80128508558E+03  0.81004618669E+03  0.00000000000E+00 0. -1.
         21    1    1    2  504  501 -0.35921849303E+02 -0.52175753273E+02  0.47021030273E+02  0.78890213429E+02  0.00000000000E+00 0.  1.
         21    1    1    2  505  504  0.32721645921E+02 -0.44351876939E+02  0.22553130533E+02  0.59551983986E+02  0.00000000000E+00 0.  1.
         21    1    1    2  506  502  0.26560428888E+02 -0.19968447232E+02 -0.20351800149E+02  0.38966537399E+02  0.00000000000E+00 0. -1.
<scales pt_clust_3="112.19501" pt_clust_4="66.98630" pt_clust_5="14000.00000" pt_clust_6="33.22943"></scales>
<clustering>
<clus scale="   33.229">  1  6  2 -1</clus>
<clus scale="   66.986">  1  4  2 -1</clus>
<clus scale="  112.195">  2  3  1 -1</clus>
<clus scale="   33.229">  1  3  2 -1</clus>
</clustering>
</event>
<event>
 6    0  0.1555973E+002  0.2634634E+03  0.7546771E-02  0.1105080E+00
         21   -1    0    0  502  501  0.00000000000E+00  0.00000000000E+00  0.10096438524E+04  0.10096438524E+04  0.00000000000E+00 0.  1.
         21   -1    0    0  504  502 -0.00000000000E+00 -0.00000000000E+00 -0.53345749454E+03  0.53345749454E+03  0.00000000000E+00 0. -1.
         21    1    1    2  503  505  0.17478760586E+03  0.13385801675E+03  0.60890200306E+03  0.64747998049E+03  0.00000000000E+00 0.  1.
         21    1    1    2  504  506 -0.46428350435E+02 -0.41234698469E+02 -0.42927285645E+03  0.43374079514E+03  0.00000000000E+00 0. -1.
         21    1    1    2  505  501  0.47944432211E+02  0.70682930015E+01  0.24921550857E+03  0.25388382985E+03  0.00000000000E+00 0.  1.
         21    1    1    2  506  503 -0.17630368764E+03 -0.99691611286E+02  0.47341702641E+02  0.20799674143E+03  0.00000000000E+00 0. -1.
<scales pt_clust_3="38.17763" pt_clust_4="62.09583" pt_clust_5="38.17763" pt_clust_6="250.58270"></scales>
<clustering>
<clus scale="   38.178">  3  5 -1 -1</clus>
<clus scale="   62.096">  2  4  1 -1</clus>
<clus scale="  250.583">  2  6  1 -1</clus>
<clus scale="  263.463">  1  3  2 -1</clus>
</clustering>
</event>
<event>
 6    0  0.1555973E+002  0.6888161E+02  0.7546771E-02  0.1363938E+00
         21   -1    0    0  502  501  0.00000000000E+00  0.00000000000E+00  0.22351225056E+04  0.22351225056E+04  0.00000000000E+00 0. -1.
         21   -1    0    0  505  502 -0.00000000000E+00 -0.00000000000E+00 -0.11725300464E+02  0.11725300464E+02  0.00000000000E+00 0. -1.
         21    1    1    2  503  506 -0.54493310525E+02 -0.31969876494E+02  0.89639352956E+03  0.89861724540E+03  0.00000000000E+00 0. -1.
         21    1    1    2  504  503  0.38359790792E+02  0.98160913952E+02  0.69254213450E+03  0.70051527224E+03  0.00000000000E+00 0. -1.
         21    1    1    2  505  504 -0.20008628405E+02 -0.45762865537E+02  0.10133852217E+03  0.11297823307E+03  0.00000000000E+00 0. -1.
         21    1    1    2  506  501  0.36142148138E+02 -0.20428171922E+02  0.53312301889E+03  0.53473705533E+03  0.00000000000E+00 0. -1.
<scales pt_clust_3="14000.00000" pt_clust_4="68.88161" pt_clust_5="50.28015" pt_clust_6="41.51584"></scales>
<clustering>
<clus scale="   41.516">  1  6  2 -1</clus>
<clus scale="   50.280">  2  5  1 -1</clus>
<clus scale="   68.882">  2  4  1 -1</clus>
<clus scale="   41.516">  1  3  2 -1</clus>
</clustering>
</event>
<event>
 6    0  0.1555973E+002  0.1157434E+03  0.7546771E-02  0.1250289E+00
         21   -1    0    0  506  501  0.00000000000E+00  0.00000000000E+00  0.53570741257E+03  0.53570741257E+03  0.00000000000E+00 0. -1.
         21   -1    0    0  505  502 -0.00000000000E+00 -0.00000000000E+00 -0.59807987279E+03  0.59807987279E+03  0.00000000000E+00 0. -1.
         21    1    1    2  503  501  0.18966910379E+02 -0.35100733033E+02  0.25988429803E+03  0.26292898948E+03  0.00000000000E+00 0. -1.
         21    1    1    2  504  503  0.11931044969E+02 -0.59480154571E+02  0.15449952046E+03  0.16598295227E+03  0.00000000000E+00 0. -1.
         21    1    1    2  505  504  0.30489169925E+00 -0.39616129418E+02 -0.54823216687E+03  0.54966175004E+03  0.00000000000E+00 0. -1.
         21    1    1    2  506  502 -0.31202847046E+02  0.13419701702E+03  0.71475888164E+02  0.15521359357E+03  0.00000000000E+00 0. -1.
<scales pt_clust_3="39.32379" pt_clust_4="39.32379" pt_clust_5="39.61730" pt_clust_6="105.09639"></scales>
<clustering>
<clus scale="   39.324">  3  4 -1 -1</clus>
<clus scale="   39.617">  2  5  1 -1</clus>
<clus scale="  105.096">  2  6  1 -1</clus>
<clus scale="  115.743">  1  3  2 -1</clus>
</clustering>
</event>
<event>
 6    0  0.2055783E+002  0.1710417E+03  0.7546771E-02  0.1176766E+00
         21   -1    0    0  504  501  0.00000000000E+00  0.00000000000E+00  0.65734664795E+03  0.65734664795E+03  0.00000000000E+00 0.  1.
         21   -1    0    0  506  502 -0.00000000000E+00 -0.00000000000E+00 -0.13692341728E+04  0.13692341728E+04  0.00000000000E+00 0. -1.
         21    1    1    2  503  501  0.40900317216E+01  0.29945444497E+02  0.47058996714E+02  0.55928589982E+02  0.00000000000E+00 0.  1.
         21    1    1    2  504  502 -0.43749104559E+02  0.42843889044E+02 -0.40057461408E+02  0.73172284320E+02  0.00000000000E+00 0. -1.
         21    1    1    2  505  503  0.16733679712E+03 -0.40016838418E+02  0.57331202286E+03  0.59857299186E+03  0.00000000000E+00 0.  1.
         21    1    1    2  506  505 -0.12767772428E+03 -0.32772495124E+02 -0.12922010830E+04  0.12989069546E+04  0.00000000000E+00 0. -1.
<scales pt_clust_3="30.22347" pt_clust_4="61.73014" pt_clust_5="171.04168" pt_clust_6="14000.00000"></scales>
<clustering>
<clus scale="   30.223">  1  3  2 -1</clus>
<clus scale="   61.730">  2  4  1 -1</clus>
<clus scale="  171.042">  1  5  2 -1</clus>
<clus scale="   30.223">  1  3  2 -1</clus>
</clustering>
</event>
<event>
 6    0  0.1555973E+002  0.1240529E+03  0.7546771E-02  0.1236557E+00
         21   -1    0    0  505  501  0.00000000000E+00  0.00000000000E+00  0.12184122085E+03  0.12184122085E+03  0.00000000000E+00 0. -1.
         21   -1    0    0  503  502 -0.00000000000E+00 -0.00000000000E+00 -0.55972306525E+03  0.55972306525E+03  0.00000000000E+00 0. -1.
         21    1    1    2  503  506 -0.32802050802E+02 -0.71719021499E+02 -0.19946112448E+03  0.21448620646E+03  0.00000000000E+00 0. -1.
         21    1    1    2  504  502 -0.51389796985E+02 -0.98655714097E+02 -0.81127040971E+02  0.13767882166E+03  0.00000000000E+00 0. -1.
         21    1    1    2  505  504  0.46222161027E+02  0.35315777960E+01  0.44889154855E+02  0.64529035599E+02  0.00000000000E+00 0. -1.
         21    1    1    2  506  501  0.37969686760E+02  0.16684315780E+03 -0.20218283380E+03  0.26487022238E+03  0.00000000000E+00 0. -1.
<scales pt_clust_3="76.48839" pt_clust_4="14000.00000" pt_clust_5="46.35688" pt_clust_6="124.05289"></scales>
<clustering>
<clus scale="   46.357">  1  5  2 -1</clus>
<clus scale="   76.488">  2  3  1 -1</clus>
<clus scale="  124.053">  2  6  1 -1</clus>
<clus scale="   46.357">  1  3  2 -1</clus>
</clustering>
</event>
<event>
 6    0  0.1555973E+002  0.1588984E+03  0.7546771E-02  0.1189946E+00
         21   -1    0    0  505  501  0.00000000000E+00  0.00000000000E+00  0.69258295097E+03  0.69258295097E+03  0.00000000000E+00 0.  1.
         21   -1    0    0  504  502 -0.00000000000E+00 -0.00000000000E+00 -0.36333735734E+03  0.36333735734E+03  0.00000000000E+00 0.  1.
         21    1    1    2  503  506 -0.10181844177E+03 -0.20034688719E+02  0.47626871807E+02  0.11417838129E+03  0.00000000000E+00 0. -1.
         21    1    1    2  504  503 -0.63399035117E+01 -0.15835658027E+03 -0.27262419926E+03  0.31534259927E+03  0.00000000000E+00 0.  1.
         21    1    1    2  505  502  0.16655351851E+03  0.15737349470E+03  0.41800948550E+03  0.47669531289E+03  0.00000000000E+00 0.  1.
         21    1    1    2  506  501 -0.58395173228E+02  0.21017774286E+02  0.13623343559E+03  0.14970401486E+03  0.00000000000E+00 0.  1.
<scales pt_clust_3="111.70621" pt_clust_4="158.89837" pt_clust_5="14000.00000" pt_clust_6="62.06241"></scales>
<clustering>
<clus scale="   62.062">  1  6  2 -1</clus>
<clus scale="  111.706">  1  3  2 -1</clus>
<clus scale="  158.898">  2  4  1 -1</clus>
<clus scale="   62.062">  1  3  2 -1</clus>
</clustering>
</event>
<event>
 6    0  0.1555973E+002  0.8386436E+02  0.7546771E-02  0.1318429E+00
         21   -1    0    0  504  501  0.00000000000E+00  0.00000000000E+00  0.33582357429E+03  0.33582357429E+03  0.00000000000E+00 0.  1.
         21   -1    0    0  505  502 -0.00000000000E+00 -0.00000000000E+00 -0.69952274556E+03  0.69952274556E+03  0.00000000000E+00 0.  1.
         21    1    1    2  503  506 -0.55024068402E+02 -0.79140682132E+02  0.54919419780E+02  0.11093709182E+03  0.00000000000E+00 0.  1.
         21    1    1    2  504  503  0.62619782142E+02  0.10745581062E+02  0.22098600727E+03  0.22993807870E+03  0.00000000000E+00 0.  1.
         21    1    1    2  505  501  0.34590558524E+02 -0.42972554413E+01  0.12456824641E+02  0.37015478160E+02  0.00000000000E+00 0. -1.
         21    1    1    2  506  502 -0.42186272264E+02  0.72692356512E+02 -0.65206142296E+03  0.65745567118E+03  0.00000000000E+00 0.  1.
<scales pt_clust_3="79.96428" pt_clust_4="14000.00000" pt_clust_5="34.85646" pt_clust_6="83.86436"></scales>
<clustering>
<clus scale="   34.856">  1  5  2 -1</clus>
<clus scale="   83.864">  2  6  1 -1</clus>
<clus scale="   79.964">  2  3  1 -1</clus>
<clus scale="   34.856">  1  3  2 -1</clus>
</clustering>
</event>
<event>
 6    0  0.1555973E+002  0.7966163E+02  0.7546771E-02  0.1330014E+00
         21   -1    0    0  504  501  0.00000000000E+00  0.00000000000E+00  0.12524988874E+03  0.12524988874E+03  0.00000000000E+00 0.  1.
         21   -1    0    0  505  502 -0.00000000000E+00 -0.00000000000E+00 -0.10703687680E+04  0.10703687680E+04  0.00000000000E+00 0.  1.
         21    1    1    2  503  502 -0.26877720537E+02  0.20809000365E+02 -0.86005759803E+03  0.86072905045E+03  0.00000000000E+00 0.  1.
         21    1    1    2  504  503 -0.21571408813E+02  0.35944706493E+02 -0.74975462507E+01  0.42585922590E+02  0.00000000000E+00 0. -1.
         21    1    1    2  505  506 -0.36808679338E+02  0.35903486632E+02 -0.14188329466E+03  0.15091324836E+03  0.00000000000E+00 0. -1.
         21    1    1    2  506  501  0.85257808688E+02 -0.92657193490E+02  0.64319559689E+02  0.14139043534E+03  0.00000000000E+00 0.  1.
<scales pt_clust_3="33.99156" pt_clust_4="45.72177" pt_clust_5="79.66163" pt_clust_6="14000.00000"></scales>
<clustering>
<clus scale="   33.992">  2  3  1 -1</clus>
<clus scale="   45.722">  1  4  2 -1</clus>
<clus scale="   79.662">  2  5  1 -1</clus>
<clus scale="   45.722">  1  3  2 -1</clus>
</clustering>
</event>
<event>
 6    0  0.1555973E+002  0.1312370E+03  0.7546771E-02  0.1225632E+00
         21   -1    0    0  505  501  0.00000000000E+00  0.00000000000E+00  0.62733526845E+03  0.62733526845E+03  0.00000000000E+00 0.  1.
         21   -1    0    0  506  502 -0.00000000000E+00 -0.00000000000E+00 -0.33305085005E+03  0.33305085005E+03  0.00000000000E+00 0.  1.
         21    1    1    2  503  501  0.48151966824E+02 -0.16657308601E+02  0.36800404024E+02  0.62851790549E+02  0.00000000000E+00 0. -1.
         21    1    1    2  504  502 -0.12766300564E+02  0.68342478386E+02  0.32936172787E+03  0.33661969724E+03  0.00000000000E+00 0.  1.
         21    1    1    2  505  504 -0.10676738247E+02  0.73261815530E+02  0.22553557992E+03  0.23737646084E+03  0.00000000000E+00 0.  1.
         21    1    1    2  506  503 -0.24708928012E+02 -0.12494698532E+03 -0.29741329341E+03  0.32353816987E+03  0.00000000000E+00 0.  1.
<scales pt_clust_3="50.95172" pt_clust_4="30.01281" pt_clust_5="30.01281" pt_clust_6="127.53014"></scales>
<clustering>
<clus scale="   30.013">  4  5 -1 -1</clus>
<clus scale="   50.952">  1  3  2 -1</clus>
<clus scale="  127.530">  2  6  1 -1</clus>
<clus scale="   50.952">  1  3  2 -1</clus>
</clustering>
</event>
<event>
 6    0  0.1555973E+002  0.1182992E+03  0.7546771E-02  0.1245930E+00
         21   -1    0    0  505  501  0.00000000000E+00  0.00000000000E+00  0.75842662586E+03  0.75842662586E+03  0.00000000000E+00 0. -1.
         21   -1    0    0  506  502 -0.00000000000E+00 -0.00000000000E+00 -0.11793866763E+03  0.11793866763E+03  0.00000000000E+00 0. -1.
         21    1    1    2  503  504 -0.12069056421E+02  0.50193363207E+02  0.75422910398E+02  0.91398310957E+02  0.00000000000E+00 0. -1.
         21    1    1    2  504  502 -0.98368733718E+01 -0.38337769501E+02 -0.79945335372E+02  0.89206531688E+02  0.00000000000E+00 0. -1.
         21    1    1    2  505  503  0.50594856624E+02  0.10626448950E+03  0.45673558078E+03  0.47165598903E+03  0.00000000000E+00 0. -1.
         21    1    1    2  506  501 -0.28688926832E+02 -0.11812008320E+03  0.18827480242E+03  0.22410446181E+03  0.00000000000E+00 0. -1.
<scales pt_clust_3="43.47701" pt_clust_4="39.57965" pt_clust_5="118.29915" pt_clust_6="14000.00000"></scales>
<clustering>
<clus scale="   39.580">  2  4  1 -1</clus>
<clus scale="   43.477">  2  3  1 -1</clus>
<clus scale="  118.299">  1  5  2 -1</clus>
<clus scale="  118.299">  1  3  2 -1</clus>
</clustering>
</event>
<event>
 6    0  0.1555973E+002  0.1829630E+03  0.7546771E-02  0.1164966E+00
         21   -1    0    0  505  501  0.00000000000E+00  0.00000000000E+00  0.11396182975E+04  0.11396182975E+04  0.00000000000E+00 0. -1.
         21   -1    0    0  501  502 -0.00000000000E+00 -0.00000000000E+00 -0.10654733264E+04  0.10654733264E+04  0.00000000000E+00 0.  1.
         21    1    1    2  503  502  0.57466585830E+02  0.74517987543E+02 -0.10314938846E+04  0.10357774727E+04  0.00000000000E+00 0.  1.
         21    1    1    2  504  506  0.67848901534E+02 -0.34477117931E+02  0.17624263210E+03  0.19197294202E+03  0.00000000000E+00 0. -1.
         21    1    1    2  505  504 -0.15904356259E+03  0.67454327244E+02  0.70992104939E+03  0.73063865038E+03  0.00000000000E+00 0. -1.
         21    1    1    2  506  503  0.33728075223E+02 -0.10749519686E+03  0.21947517419E+03  0.24670255875E+03  0.00000000000E+00 0.  1.
<scales pt_clust_3="94.10281" pt_clust_4="60.22699" pt_clust_5="167.64801" pt_clust_6="60.22699"></scales>
<clustering>
<clus scale="   60.227">  4  6 -1 -1</clus>
<clus scale="   94.103">  2  3  1 -1</clus>
<clus scale="  167.648">  1  5  2 -1</clus>
<clus scale="  167.648">  1  3  2 -1</clus>
</clustering>
</event>
<event>
 6    0  0.1555973E+002  0.1141403E+03  0.7546771E-02  0.1253089E+00
         21   -1    0    0  505  501  0.00000000000E+00  0.00000000000E+00  0.49288305927E+03  0.49288305927E+03  0.00000000000E+00 0.  1.
         21   -1    0    0  506  502 -0.00000000000E+00 -0.00000000000E+00 -0.23972939292E+03  0.23972939292E+03  0.00000000000E+00 0.  1.
         21    1    1    2  503  501  0.16075791631E+02  0.53746952812E+02  0.52522096669E+02  0.76848790827E+02  0.00000000000E+00 0.  1.
         21    1    1    2  504  503 -0.34453836822E+02  0.70891663052E+02  0.21098938148E+02  0.81595710384E+02  0.00000000000E+00 0.  1.
         21    1    1    2  505  502 -0.30452618716E+02 -0.88409398868E+02  0.36614676075E+03  0.37789817968E+03  0.00000000000E+00 0.  1.
         21    1    1    2  506  504  0.48830663908E+02 -0.36229216996E+02 -0.18661412922E+03  0.19626977130E+03  0.00000000000E+00 0.  1.
<scales pt_clust_3="52.08829" pt_clust_4="52.08829" pt_clust_5="95.99964" pt_clust_6="60.80288"></scales>
<clustering>
<clus scale="   52.088">  3  4 -1 -1</clus>
<clus scale="   60.803">  2  6  1 -1</clus>
<clus scale="   96.000">  1  5  2 -1</clus>
<clus scale="   96.000">  1  3  2 -1</clus>
</clustering>
</event>
<event>
 6    0  0.1555973E+002  0.1957467E+03  0.7546771E-02  0.1153378E+00
         21   -1    0    0  506  501  0.00000000000E+00  0.00000000000E+00  0.40489159341E+03  0.40489159341E+03  0.00000000000E+00 0.  1.
         21   -1    0    0  504  502 -0.00000000000E+00 -0.00000000000E+00 -0.17891084530E+03  0.17891084530E+03  0.00000000000E+00 0.  1.
         21    1    1    2  503  501  0.20937615167E+02  0.16240628398E+03  0.75698743583E+02  0.18040089963E+03  0.00000000000E+00 0.  1.
         21    1    1    2  504  503  0.88649835709E+01  0.51125929088E+02 -0.26726820069E+02  0.58367554941E+02  0.00000000000E+00 0.  1.
         21    1    1    2  505  502 -0.57194006128E+02 -0.52493768499E+02 -0.28335075269E+02  0.82641554673E+02  0.00000000000E+00 0.  1.
         21    1    1    2  506  505  0.27391407390E+02 -0.16103844457E+03  0.20534389987E+03  0.26239242947E+03  0.00000000000E+00 0.  1.
<scales pt_clust_3="50.74994" pt_clust_4="50.74994" pt_clust_5="77.63215" pt_clust_6="173.74936"></scales>
<clustering>
<clus scale="   50.750">  3  4 -1 -1</clus>
<clus scale="   77.632">  2  5  1 -1</clus>
<clus scale="  173.749">  1  6  2 -1</clus>
<clus scale="  173.749">  1  3  2 -1</clus>
</clustering>
</event>
<event>
 6    0  0.1555973E+002  0.1352629E+03  0.7546771E-02  0.1219849E+00
         21   -1    0    0  505  501  0.00000000000E+00  0.00000000000E+00  0.12836244967E+03  0.12836244967E+03  0.00000000000E+00 0. -1.
         21   -1    0    0  503  502 -0.00000000000E+00 -0.00000000000E+00 -0.44511866631E+03  0.44511866631E+03  0.00000000000E+00 0. -1.
         21    1    1    2  503  504 -0.39644039700E+02 -0.48071876545E+02  0.22116697497E+00  0.62310545761E+02  0.00000000000E+00 0. -1.
         21    1    1    2  504  506 -0.54901528681E+02 -0.23383136704E+02  0.13882061265E+02  0.61267124614E+02  0.00000000000E+00 0. -1.
         21    1    1    2  505  502  0.12467559886E+03  0.49757681497E+02 -0.37140871876E+03  0.39492311681E+03  0.00000000000E+00 0. -1.
         21    1    1    2  506  501 -0.30130030484E+02  0.21697331751E+02  0.40549273879E+02  0.54980328793E+02  0.00000000000E+00 0. -1.
<scales pt_clust_3="31.37460" pt_clust_4="31.37460" pt_clust_5="131.40848" pt_clust_6="37.12941"></scales>
<clustering>
<clus scale="   31.375">  3  4 -1 -1</clus>
<clus scale="   37.129">  1  6  2 -1</clus>
<clus scale="  131.408">  2  5  1 -1</clus>
<clus scale="   37.129">  1  3  2 -1</clus>
</clustering>
</event>
<event>
 6    0  0.1555973E+002  0.1127803E+03  0.7546771E-02  0.1255506E+00
         21   -1    0    0  506  501  0.00000000000E+00  0.00000000000E+00  0.16122506457E+04  0.16122506457E+04  0.00000000000E+00 0. -1.
         21   -1    0    0  504  502 -0.00000000000E+00 -0.00000000000E+00 -0.12048448143E+03  0.12048448143E+03  0.00000000000E+00 0. -1.
         21    1    1    2  503  502 -0.37170053631E+02 -0.74992198425E+02  0.27965234085E+03  0.29190901742E+03  0.00000000000E+00 0. -1.
         21    1    1    2  504  505 -0.41870738881E+02  0.10575438391E+03 -0.79654989436E+02  0.13885987841E+03  0.00000000000E+00 0. -1.
         21    1    1    2  505  501  0.37329513820E+02 -0.68762541981E+02  0.10793082605E+04  0.10821405181E+04  0.00000000000E+00 0. -1.
         21    1    1    2  506  503  0.41711278691E+02  0.38000356495E+02  0.21246055235E+03  0.21982571317E+03  0.00000000000E+00 0.  1.
<scales pt_clust_3="73.05785" pt_clust_4="112.78031" pt_clust_5="14000.00000" pt_clust_6="56.42568"></scales>
<clustering>
<clus scale="   56.426">  1  6  2 -1</clus>
<clus scale="   73.058">  1  3  2 -1</clus>
<clus scale="  112.780">  2  4  1 -1</clus>
<clus scale="   56.426">  1  3  2 -1</clus>
</clustering>
</event>
<event>
 6    0  0.1555973E+002  0.3064615E+03  0.7546771E-02  0.1082054E+00
         21   -1    0    0  505  501  0.00000000000E+00  0.00000000000E+00  0.12203667925E+03  0.12203667925E+03  0.00000000000E+00 0. -1.
         21   -1    0    0  504  502 -0.00000000000E+00 -0.00000000000E+00 -0.10361539855E+04  0.10361539855E+04  0.00000000000E+00 0. -1.
         21    1    1    2  503  502 -0.54590899817E+02  0.49572774881E+02 -0.17838906253E+03  0.19302923090E+03  0.00000000000E+00 0.  1.
         21    1    1    2  504  506  0.58190788502E+02  0.38541856700E+02 -0.14229415365E+03  0.15849059514E+03  0.00000000000E+00 0. -1.
         21    1    1    2  505  503 -0.99469649829E+02 -0.29083379025E+03 -0.24854066761E+03  0.39528593227E+03  0.00000000000E+00 0. -1.
         21    1    1    2  506  501  0.95869761143E+02  0.20271915867E+03 -0.34489342241E+03  0.41138490640E+03  0.00000000000E+00 0. -1.
<scales pt_clust_3="73.74026" pt_clust_4="41.24250" pt_clust_5="297.41184" pt_clust_6="41.24250"></scales>
<clustering>
<clus scale="   41.242">  4  6 -1 -1</clus>
<clus scale="   73.740">  2  3  1 -1</clus>
<clus scale="  297.412">  1  5  2 -1</clus>
<clus scale="  297.412">  1  3  2 -1</clus>
</clustering>
</event>
<event>
 6    0  0.1555973E+002  0.1384749E+03  0.7546771E-02  0.1215396E+00
         21   -1    0    0  505  501  0.00000000000E+00  0.00000000000E+00  0.11554002956E+03  0.11554002956E+03  0.00000000000E+00 0. -1.
         21   -1    0    0  506  502 -0.00000000000E+00 -0.00000000000E+00 -0.64866967053E+03  0.64866967053E+03  0.00000000000E+00 0. -1.
         21    1    1    2  503  502 -0.54894657307E+02 -0.33895470248E+02 -0.46367711466E+03  0.46814398743E+03  0.00000000000E+00 0. -1.
         21    1    1    2  504  503 -0.44564938648E+01 -0.52112128371E+02 -0.71577538739E+02  0.88650314792E+02  0.00000000000E+00 0. -1.
         21    1    1    2  505  504 -0.16004430725E+02 -0.46717871767E+02 -0.19836002416E+02  0.53218120383E+02  0.00000000000E+00 0. -1.
         21    1    1    2  506  501  0.75355581897E+02  0.13272547039E+03  0.21961014845E+02  0.15419727749E+03  0.00000000000E+00 0. -1.
<scales pt_clust_3="64.51609" pt_clust_4="38.67533" pt_clust_5="38.67533" pt_clust_6="132.63143"></scales>
<clustering>
<clus scale="   38.675">  4  5 -1 -1</clus>
<clus scale="   64.516">  2  3  1 -1</clus>
<clus scale="  132.631">  1  6  2 -1</clus>
<clus scale="  132.631">  1  3  2 -1</clus>
</clustering>
</event>
<event>
 6    0  0.1555973E+002  0.2383745E+03  0.7546771E-02  0.1120880E+00
         21   -1    0    0  504  501  0.00000000000E+00  0.00000000000E+00  0.54905606398E+02  0.54905606398E+02  0.00000000000E+00 0. -1.
         21   -1    0    0  505  502 -0.00000000000E+00 -0.00000000000E+00 -0.99783198371E+03  0.99783198371E+03  0.00000000000E+00 0. -1.
         21    1    1    2  503  502  0.53737997667E+02 -0.40822680193E+02 -0.15691146750E+03  0.17080829091E+03  0.00000000000E+00 0. -1.
         21    1    1    2  504  506  0.99106617146E+02 -0.18941751357E+02 -0.11811314966E+03  0.15534357930E+03  0.00000000000E+00 0. -1.
         21    1    1    2  505  501 -0.21435226335E+03  0.64679705355E+02 -0.54003719712E+03  0.58461143622E+03  0.00000000000E+00 0. -1.
         21    1    1    2  506  503  0.61507648541E+02 -0.49152738055E+01 -0.12786456303E+03  0.14197428367E+03  0.00000000000E+00 0. -1.
<scales pt_clust_3="43.52093" pt_clust_4="43.52093" pt_clust_5="223.89810" pt_clust_6="30.55602"></scales>
<clustering>
<clus scale="   30.556">  4  6 -1 -1</clus>
<clus scale="   43.521">  3  4 -1 -1</clus>
<clus scale="  223.898">  2  5  1 -1</clus>
<clus scale="  238.375">  1  3  2 -1</clus>
</clustering>
</event>
<event>
 6    0  0.1555973E+002  0.8866522E+02  0.7546771E-02  0.1306117E+00
         21   -1    0    0  506  501  0.00000000000E+00  0.00000000000E+00  0.31269916232E+03  0.31269916232E+03  0.00000000000E+00 0. -1.
         21   -1    0    0  505  502 -0.00000000000E+00 -0.00000000000E+00 -0.17334472484E+04  0.17334472484E+04  0.00000000000E+00 0. -1.
         21    1    1    2  503  501 -0.65063103506E+02 -0.13019378886E+02  0.22735268311E+03  0.23683740030E+03  0.00000000000E+00 0. -1.
         21    1    1    2  504  502  0.40838015955E+02 -0.10919620919E+03 -0.11867473399E+03  0.16635879339E+03  0.00000000000E+00 0. -1.
         21    1    1    2  505  503  0.46063093392E+02  0.75599453497E+02 -0.15730105547E+04  0.15754996957E+04  0.00000000000E+00 0. -1.
         21    1    1    2  506  504 -0.21838005842E+02  0.46616134581E+02  0.43584519436E+02  0.67450521398E+02  0.00000000000E+00 0. -1.
<scales pt_clust_3="87.80460" pt_clust_4="14000.00000" pt_clust_5="88.66522" pt_clust_6="51.47779"></scales>
<clustering>
<clus scale="   51.478">  1  6  2 -1</clus>
<clus scale="   88.665">  2  5  1 -1</clus>
<clus scale="   87.805">  1  3  2 -1</clus>
<clus scale="   51.478">  1  3  2 -1</clus>
</clustering>
</event>
<event>
 6    0  0.1555973E+002  0.1589648E+03  0.7546771E-02  0.1189870E+00
         21   -1    0    0  505  501  0.00000000000E+00  0.00000000000E+00  0.90502243486E+03  0.90502243486E+03  0.00000000000E+00 0.  1.
         21   -1    0    0  503  502 -0.00000000000E+00 -0.00000000000E+00 -0.10329204445E+03  0.10329204445E+03  0.00000000000E+00 0.  1.
         21    1    1    2  503  506 -0.17907462833E+02 -0.16016206427E+03  0.89199630730E+01  0.16140672166E+03  0.00000000000E+00 0.  1.
         21    1    1    2  504  502  0.30006311098E+01  0.15024165365E+03  0.34134018821E+03  0.37295399497E+03  0.00000000000E+00 0.  1.
         21    1    1    2  505  504  0.48110936764E+02  0.61654380404E+02  0.30985756707E+03  0.31957414903E+03  0.00000000000E+00 0.  1.
         21    1    1    2  506  501 -0.33204105041E+02 -0.51733969782E+02  0.14161267207E+03  0.15437961365E+03  0.00000000000E+00 0.  1.
<scales pt_clust_3="14000.00000" pt_clust_4="158.96479" pt_clust_5="52.80886" pt_clust_6="61.47289"></scales>
<clustering>
<clus scale="   61.473">  1  6  2 -1</clus>
<clus scale="   52.809">  1  5  2 -1</clus>
<clus scale="  158.965">  1  4  2 -1</clus>
<clus scale="   61.473">  1  3  2 -1</clus>
</clustering>
</event>
<event>
 6    0  0.1555973E+002  0.1354234E+03  0.7546771E-02  0.1219623E+00
         21   -1    0    0  505  501  0.00000000000E+00  0.00000000000E+00  0.15668670761E+03  0.15668670761E+03  0.00000000000E+00 0. -1.
         21   -1    0    0  506  502 -0.00000000000E+00 -0.00000000000E+00 -0.25213534193E+03  0.25213534193E+03  0.00000000000E+00 0. -1.
         21    1    1    2  503  501 -0.48113720111E+02  0.99559327306E+02 -0.47997632722E+01  0.11067984208E+03  0.00000000000E+00 0. -1.
         21    1    1    2  504  502 -0.45048143746E+02 -0.54799355973E+02 -0.92802207991E+01  0.71543183938E+02  0.00000000000E+00 0. -1.
         21    1    1    2  505  504 -0.54354484346E+02 -0.29417035228E+01 -0.32864894270E+01  0.54533151393E+02  0.00000000000E+00 0. -1.
         21    1    1    2  506  503  0.14751634820E+03 -0.41818267810E+02 -0.78082160829E+02  0.17206587212E+03  0.00000000000E+00 0. -1.
<scales pt_clust_3="110.57572" pt_clust_4="43.99478" pt_clust_5="43.99478" pt_clust_6="125.76603"></scales>
<clustering>
<clus scale="   43.995">  4  5 -1 -1</clus>
<clus scale="  110.576">  1  3  2 -1</clus>
<clus scale="  125.766">  2  6  1 -1</clus>
<clus scale="  110.576">  1  3  2 -1</clus>
</clustering>
</event>
<event>
 6    0  0.1555973E+002  0.2936122E+03  0.7546771E-02  0.1088478E+00
         21   -1    0    0  506  501  0.00000000000E+00  0.00000000000E+00  0.19465793997E+04  0.19465793997E+04  0.00000000000E+00 0. -1.
         21   -1    0    0  504  502 -0.00000000000E+00 -0.00000000000E+00 -0.12382912375E+03  0.12382912375E+03  0.00000000000E+00 0.  1.
         21    1    1    2  503  505  0.40286801421E+02 -0.52000199955E+02  0.21899002393E+03  0.22865624362E+03  0.00000000000E+00 0.  1.
         21    1    1    2  504  503  0.21252610933E+03 -0.60699375204E+02  0.55907378542E+03  0.60117822552E+03  0.00000000000E+00 0.  1.
         21    1    1    2  505  501 -0.24805910537E+03  0.14318104695E+03  0.11216588199E+04  0.11576496190E+04  0.00000000000E+00 0. -1.
         21    1    1    2  506  502 -0.47538053872E+01 -0.30481471787E+02 -0.76972353369E+02  0.82924435308E+02  0.00000000000E+00 0.  1.
<scales pt_clust_3="44.97009" pt_clust_4="44.97009" pt_clust_5="282.10237" pt_clust_6="30.84994"></scales>
<clustering>
<clus scale="   30.850">  2  6  1 -1</clus>
<clus scale="   44.970">  3  4 -1 -1</clus>
<clus scale="  282.102">  1  5  2 -1</clus>
<clus scale="  282.102">  1  3  2 -1</clus>
</clustering>
</event>
<event>
 6    0  0.1555973E+002  0.1316324E+03  0.7546771E-02  0.1225053E+00
         21   -1    0    0  503  501  0.00000000000E+00  0.00000000000E+00  0.52494495534E+03  0.52494495534E+03  0.00000000000E+00 0. -1.
         21   -1    0    0  504  502 -0.00000000000E+00 -0.00000000000E+00 -0.22853837064E+03  0.22853837064E+03  0.00000000000E+00 0.  1.
         21    1    1    2  503  506  0.17174905305E+02  0.50621731721E+02  0.30085371573E+03  0.30556586093E+03  0.00000000000E+00 0. -1.
         21    1    1    2  504  501  0.33344084414E+02  0.68208048623E+01  0.23028510708E+02  0.41093352866E+02  0.00000000000E+00 0.  1.
         21    1    1    2  505  502 -0.83444485023E+02 -0.97169118271E+02 -0.19401252427E+03  0.23247726599E+03  0.00000000000E+00 0.  1.
         21    1    1    2  506  505  0.32925495305E+02  0.39726581687E+02  0.16653688253E+03  0.17434684619E+03  0.00000000000E+00 0. -1.
<scales pt_clust_3="33.88237" pt_clust_4="34.03456" pt_clust_5="127.03434" pt_clust_6="33.88237"></scales>
<clustering>
<clus scale="   33.882">  3  6 -1 -1</clus>
<clus scale="   34.035">  1  4  2 -1</clus>
<clus scale="  127.034">  2  5  1 -1</clus>
<clus scale="   34.035">  1  3  2 -1</clus>
</clustering>
</event>
<event>
 6    0  0.1555973E+002  0.1571246E+03  0.7546771E-02  0.1191982E+00
         21   -1    0    0  505  501  0.00000000000E+00  0.00000000000E+00  0.56688258582E+03  0.56688258582E+03  0.00000000000E+00 0.  1.
         21   -1    0    0  503  502 -0.00000000000E+00 -0.00000000000E+00 -0.16727787035E+04  0.16727787035E+04  0.00000000000E+00 0.  1.
         21    1    1    2  503  504  0.82632446252E+02  0.79990253583E+01  0.19941317002E+03  0.21600397671E+03  0.00000000000E+00 0.  1.
         21    1    1    2  504  501  0.64132618830E+02  0.87762280398E+01  0.31196867338E+03  0.31861335212E+03  0.00000000000E+00 0.  1.
         21    1    1    2  505  506 -0.17707445981E+03  0.51266520491E+02 -0.15494289976E+03  0.24081304497E+03  0.00000000000E+00 0.  1.
         21    1    1    2  506  502  0.30309394730E+02 -0.68041773889E+02 -0.14623350613E+04  0.14642309155E+04  0.00000000000E+00 0.  1.
<scales pt_clust_3="43.99932" pt_clust_4="43.99932" pt_clust_5="149.01421" pt_clust_6="74.48720"></scales>
<clustering>
<clus scale="   43.999">  3  4 -1 -1</clus>
<clus scale="   74.487">  2  6  1 -1</clus>
<clus scale="  149.014">  2  5  1 -1</clus>
<clus scale="  157.125">  1  3  2 -1</clus>
</clustering>
</event>
<event>
 6    0  0.1555973E+002  0.1601373E+03  0.7546771E-02  0.1188542E+00
         21   -1    0    0  504  501  0.00000000000E+00  0.00000000000E+00  0.16033583348E+03  0.16033583348E+03  0.00000000000E+00 0.  1.
         21   -1    0    0  505  502 -0.00000000000E+00 -0.00000000000E+00 -0.35011990736E+03  0.35011990736E+03  0.00000000000E+00 0.  1.
         21    1    1    2  503  502  0.64003152622E+02 -0.23481066534E+02 -0.18103649323E+03  0.19344760508E+03  0.00000000000E+00 0.  1.
         21    1    1    2  504  506  0.40307937821E+02 -0.53855862755E+02  0.11201998803E+02  0.68195810587E+02  0.00000000000E+00 0.  1.
         21    1    1    2  505  501 -0.15925327692E+03  0.90745671855E+02  0.12305986832E+02  0.18370579871E+03  0.00000000000E+00 0.  1.
         21    1    1    2  506  503  0.54942186475E+02 -0.13408742566E+02 -0.32255566287E+02  0.65106526465E+02  0.00000000000E+00 0.  1.
<scales pt_clust_3="68.17451" pt_clust_4="55.99254" pt_clust_5="148.03647" pt_clust_6="55.99254"></scales>
<clustering>
<clus scale="   55.993">  4  6 -1 -1</clus>
<clus scale="   68.175">  2  3  1 -1</clus>
<clus scale="  148.036">  2  5  1 -1</clus>
<clus scale="  160.137">  1  3  2 -1</clus>
</clustering>
</event>
<event>
 6    0  0.1555973E+002  0.9866571E+02  0.7546771E-02  0.1283127E+00
         21   -1    0    0  504  501  0.00000000000E+00  0.00000000000E+00  0.49971329851E+02  0.49971329851E+02  0.00000000000E+00 0. -1.
         21   -1    0    0  503  502 -0.00000000000E+00 -0.00000000000E+00 -0.12650448700E+04  0.12650448700E+04  0.00000000000E+00 0. -1.
         21    1    1    2  503  505 -0.44808464591E+02 -0.10617578572E+01 -0.64349129525E+02  0.78420254395E+02  0.00000000000E+00 0. -1.
         21    1    1    2  504  506 -0.20006149166E+02  0.10299878239E+03 -0.51565451604E+02  0.11691018338E+03  0.00000000000E+00 0. -1.
         21    1    1    2  505  501  0.40839608522E+02 -0.77074381226E+02 -0.18144611911E+03  0.20132319292E+03  0.00000000000E+00 0. -1.
         21    1    1    2  506  502  0.23975005235E+02 -0.24862643304E+02 -0.91771283991E+03  0.91836256916E+03  0.00000000000E+00 0. -1.
<scales pt_clust_3="40.35193" pt_clust_4="98.66571" pt_clust_5="14000.00000" pt_clust_6="34.53914"></scales>
<clustering>
<clus scale="   34.539">  2  6  1 -1</clus>
<clus scale="   40.352">  2  3  1 -1</clus>
<clus scale="   98.666">  1  4  2 -1</clus>
<clus scale="   98.666">  1  3  2 -1</clus>
</clustering>
</event>
<event>
 6    0  0.1555973E+002  0.1967044E+03  0.7546771E-02  0.1152550E+00
         21   -1    0    0  506  501  0.00000000000E+00  0.00000000000E+00  0.18359573865E+04  0.18359573865E+04  0.00000000000E+00 0. -1.
         21   -1    0    0  504  502 -0.00000000000E+00 -0.00000000000E+00 -0.32865883177E+02  0.32865883177E+02  0.00000000000E+00 0.  1.
         21    1    1    2  503  501 -0.26712823391E+02 -0.31116945197E+02  0.28739591950E+03  0.29030717139E+03  0.00000000000E+00 0. -1.
         21    1    1    2  504  505  0.35428986598E+02 -0.85147198195E+02  0.72073121552E+03  0.72660769572E+03  0.00000000000E+00 0. -1.
         21    1    1    2  505  503  0.88261331744E+02 -0.36078423655E+02  0.47520716640E+03  0.48467882802E+03  0.00000000000E+00 0. -1.
         21    1    1    2  506  502 -0.96977494951E+02  0.15234256705E+03  0.31975720195E+03  0.36722957460E+03  0.00000000000E+00 0.  1.
<scales pt_clust_3="41.01023" pt_clust_4="79.11892" pt_clust_5="79.11892" pt_clust_6="178.16045"></scales>
<clustering>
<clus scale="   41.010">  1  3  2 -1</clus>
<clus scale="   79.119">  4  5 -1 -1</clus>
<clus scale="  178.160">  2  6  1 -1</clus>
<clus scale="   41.010">  1  3  2 -1</clus>
</clustering>
</event>
<event>
 6    0  0.1555973E+002  0.1910449E+03  0.7546771E-02  0.1157522E+00
         21   -1    0    0  505  501  0.00000000000E+00  0.00000000000E+00  0.43340383337E+03  0.43340383337E+03  0.00000000000E+00 0.  1.
         21   -1    0    0  503  502 -0.00000000000E+00 -0.00000000000E+00 -0.71968747576E+03  0.71968747576E+03  0.00000000000E+00 0. -1.
         21    1    1    2  503  501 -0.88466548488E+01  0.31910003160E+02  0.21565465017E+02  0.39516843055E+02  0.00000000000E+00 0.  1.
         21    1    1    2  504  506 -0.88960412887E+02 -0.56341869214E+01  0.16931762852E+03  0.19134826482E+03  0.00000000000E+00 0.  1.
         21    1    1    2  505  504 -0.90052307574E+02 -0.39765109375E+02  0.19808621980E+03  0.22119862680E+03  0.00000000000E+00 0.  1.
         21    1    1    2  506  502  0.18785937531E+03  0.13489293137E+02 -0.67525295573E+03  0.70102757445E+03  0.00000000000E+00 0. -1.
<scales pt_clust_3="33.11362" pt_clust_4="31.59898" pt_clust_5="31.59898" pt_clust_6="188.13676"></scales>
<clustering>
<clus scale="   31.599">  4  5 -1 -1</clus>
<clus scale="   33.114">  1  3  2 -1</clus>
<clus scale="  188.137">  2  6  1 -1</clus>
<clus scale="   33.114">  1  3  2 -1</clus>
</clustering>
</event>
<event>
 6    0  0.1555973E+002  0.1051098E+03  0.7546771E-02  0.1269903E+00
         21   -1    0    0  504  501  0.00000000000E+00  0.00000000000E+00  0.84894065516E+03  0.84894065516E+03  0.00000000000E+00 0.  1.
         21   -1    0    0  503  502 -0.00000000000E+00 -0.00000000000E+00 -0.25513621521E+03  0.25513621521E+03  0.00000000000E+00 0.  1.
         21    1    1    2  503  505  0.60941316168E+02  0.23422646027E+01 -0.22838620557E+03  0.23638863999E+03  0.00000000000E+00 0.  1.
         21    1    1    2  504  502 -0.26595942922E+02 -0.44723895606E+02  0.91978740267E+02  0.10567714833E+03  0.00000000000E+00 0.  1.
         21    1    1    2  505  506  0.74266387148E+02  0.58294827601E+02  0.20855905812E+03  0.22893375441E+03  0.00000000000E+00 0.  1.
         21    1    1    2  506  501 -0.10861176039E+03 -0.15913196598E+02  0.52165284713E+03  0.53307732764E+03  0.00000000000E+00 0.  1.
<scales pt_clust_3="60.83583" pt_clust_4="52.03433" pt_clust_5="105.10983" pt_clust_6="14000.00000"></scales>
<clustering>
<clus scale="   52.034">  1  4  2 -1</clus>
<clus scale="   60.836">  2  3  1 -1</clus>
<clus scale="  105.110">  2  5  1 -1</clus>
<clus scale="   52.034">  1  3  2 -1</clus>
</clustering>
</event>
<event>
 6    0  0.1555973E+002  0.1249480E+03  0.7546771E-02  0.1235150E+00
         21   -1    0    0  506  501  0.00000000000E+00  0.00000000000E+00  0.14063587224E+02  0.14063587224E+02  0.00000000000E+00 0.  1.
         21   -1    0    0  505  502 -0.00000000000E+00 -0.00000000000E+00 -0.31281136141E+04  0.31281136141E+04  0.00000000000E+00 0.  1.
         21    1    1    2  503  504  0.28359031087E+02  0.87172710644E+02 -0.22415613506E+03  0.24217615285E+03  0.00000000000E+00 0.  1.
         21    1    1    2  504  502 -0.19358291725E+02 -0.81115964199E+02 -0.22423590472E+04  0.22439092316E+04  0.00000000000E+00 0.  1.
         21    1    1    2  505  501 -0.45223696738E+02 -0.15812245152E+02 -0.54152781500E+03  0.54364288302E+03  0.00000000000E+00 0.  1.
         21    1    1    2  506  503  0.36222957376E+02  0.97554987076E+01 -0.10600702968E+03  0.11244893391E+03  0.00000000000E+00 0. -1.
<scales pt_clust_3="36.10429" pt_clust_4="111.47506" pt_clust_5="47.90835" pt_clust_6="36.10429"></scales>
<clustering>
<clus scale="   36.104">  3  6 -1 -1</clus>
<clus scale="   47.908">  2  5  1 -1</clus>
<clus scale="  111.475">  2  4  1 -1</clus>
<clus scale="  124.948">  1  3  2 -1</clus>
</clustering>
</event>
<event>
 6    0  0.1555973E+002  0.2584307E+03  0.7546771E-02  0.1108090E+00
         21   -1    0    0  505  501  0.00000000000E+00  0.00000000000E+00  0.21575037382E+03  0.21575037382E+03  0.00000000000E+00 0. -1.
         21   -1    0    0  506  502 -0.00000000000E+00 -0.00000000000E+00 -0.77346541239E+03  0.77346541239E+03  0.00000000000E+00 0.  1.
         21    1    1    2  503  502  0.82494468974E+02  0.68613403386E+02 -0.69099813803E+02  0.12762413879E+03  0.00000000000E+00 0. -1.
         21    1    1    2  504  501 -0.23111408100E+03 -0.77089815337E+02  0.32865280471E+02  0.24583873724E+03  0.00000000000E+00 0. -1.
         21    1    1    2  505  503  0.16650896234E+03  0.48781021507E+02 -0.11790865340E+03  0.20977910559E+03  0.00000000000E+00 0.  1.
         21    1    1    2  506  504 -0.17889350309E+02 -0.40304609556E+02 -0.40357185185E+03  0.40597380459E+03  0.00000000000E+00 0.  1.
<scales pt_clust_3="43.67576" pt_clust_4="252.39218" pt_clust_5="43.67576" pt_clust_6="44.09638"></scales>
<clustering>
<clus scale="   43.676">  3  5 -1 -1</clus>
<clus scale="   44.096">  2  6  1 -1</clus>
<clus scale="  252.392">  1  4  2 -1</clus>
<clus scale="  252.392">  1  3  2 -1</clus>
</clustering>
</event>
<event>
 6    0  0.1555973E+002  0.1215091E+03  0.7546771E-02  0.1240628E+00
         21   -1    0    0  505  501  0.00000000000E+00  0.00000000000E+00  0.11281295168E+03  0.11281295168E+03  0.00000000000E+00 0.  1.
         21   -1    0    0  506  502 -0.00000000000E+00 -0.00000000000E+00 -0.48654713873E+03  0.48654713873E+03  0.00000000000E+00 0.  1.
         21    1    1    2  503  502 -0.59704280111E+02  0.13932620497E+02 -0.30727177600E+03  0.31332836339E+03  0.00000000000E+00 0.  1.
         21    1    1    2  504  501  0.29824796533E+02  0.60801149586E+01 -0.40941246980E+01  0.30712345127E+02  0.00000000000E+00 0.  1.
         21    1    1    2  505  503 -0.50805376804E+02  0.94419220860E+02 -0.33762051763E+02  0.11241019402E+03  0.00000000000E+00 0.  1.
         21    1    1    2  506  504  0.80684860382E+02 -0.11443195632E+03 -0.28606234578E+02  0.14290918787E+03  0.00000000000E+00 0.  1.
<scales pt_clust_3="60.46774" pt_clust_4="30.43824" pt_clust_5="121.50915" pt_clust_6="14000.00000"></scales>
<clustering>
<clus scale="   30.438">  1  4  2 -1</clus>
<clus scale="   60.468">  2  3  1 -1</clus>
<clus scale="  121.509">  1  5  2 -1</clus>
<clus scale="   30.438">  1  3  2 -1</clus>
</clustering>
</event>
<event>
 6    0  0.1555973E+002  0.1290103E+03  0.7546771E-02  0.1228932E+00
         21   -1    0    0  504  501  0.00000000000E+00  0.00000000000E+00  0.43339857203E+03  0.43339857203E+03  0.00000000000E+00 0.  1.
         21   -1    0    0  505  502 -0.00000000000E+00 -0.00000000000E+00 -0.29192203188E+03  0.29192203188E+03  0.00000000000E+00 0. -1.
         21    1    1    2  503  506  0.58241488405E+02  0.16725138821E+02  0.24644148925E+02  0.65415100065E+02  0.00000000000E+00 0. -1.
         21    1    1    2  504  502  0.12174326867E+03 -0.12620019760E+01  0.32194917935E+03  0.34420094450E+03  0.00000000000E+00 0.  1.
         21    1    1    2  505  503 -0.12810525094E+03 -0.18672817957E+02 -0.22538072210E+03  0.25991556195E+03  0.00000000000E+00 0. -1.
         21    1    1    2  506  501 -0.51879506139E+02  0.32096811124E+01  0.20263933978E+02  0.55788997395E+02  0.00000000000E+00 0.  1.
<scales pt_clust_3="55.05287" pt_clust_4="14000.00000" pt_clust_5="129.01031" pt_clust_6="51.97870"></scales>
<clustering>
<clus scale="   51.979">  1  6  2 -1</clus>
<clus scale="   55.053">  1  3  2 -1</clus>
<clus scale="  129.010">  2  5  1 -1</clus>
<clus scale="   51.979">  1  3  2 -1</clus>
</clustering>
</event>
<event>
 6    0  0.1555973E+002  0.1358335E+03  0.7546771E-02  0.1219048E+00
         21   -1    0    0  506  501  0.00000000000E+00  0.00000000000E+00  0.13832718333E+04  0.13832718333E+04  0.00000000000E+00 0. -1.
         21   -1    0    0  504  502 -0.00000000000E+00 -0.00000000000E+00 -0.17824225602E+03  0.17824225602E+03  0.00000000000E+00 0. -1.
         21    1    1    2  503  502 -0.29224385172E+02 -0.32856467425E+02 -0.25719127228E+02  0.50941983135E+02  0.00000000000E+00 0.  1.
         21    1    1    2  504  501  0.30444700339E+02  0.23876250625E+02  0.10258841748E+03  0.10964186483E+03  0.00000000000E+00 0. -1.
         21    1    1    2  505  503 -0.83965805384E+02 -0.25981803821E+02 -0.12044102824E+03  0.14910181719E+03  0.00000000000E+00 0. -1.
         21    1    1    2  506  505  0.82745490217E+02  0.34962020621E+02  0.12486013153E+04  0.12518284242E+04  0.00000000000E+00 0. -1.
<scales pt_clust_3="34.51215" pt_clust_4="38.69050" pt_clust_5="34.51215" pt_clust_6="126.76738"></scales>
<clustering>
<clus scale="   34.512">  3  5 -1 -1</clus>
<clus scale="   38.691">  1  4  2 -1</clus>
<clus scale="  126.767">  1  6  2 -1</clus>
<clus scale="   38.691">  1  3  2 -1</clus>
</clustering>
</event>
<event>
 6    0  0.1555973E+002  0.1266745E+03  0.7546771E-02  0.1232475E+00
         21   -1    0    0  505  501  0.00000000000E+00  0.00000000000E+00  0.60764855436E+03  0.60764855436E+03  0.00000000000E+00 0.  1.
         21   -1    0    0  506  502 -0.00000000000E+00 -0.00000000000E+00 -0.11177435709E+04  0.11177435709E+04  0.00000000000E+00 0.  1.
         21    1    1    2  503  502 -0.77984489987E+02 -0.79911647998E+02  0.47382655808E+02  0.12129537599E+03  0.00000000000E+00 0.  1.
         21    1    1    2  504  503  0.60285358160E+02  0.29013752231E+02  0.24171343651E+03  0.25080172969E+03  0.00000000000E+00 0.  1.
         21    1    1    2  505  504  0.64761099317E+02 -0.92312099340E+01  0.27181230728E+03  0.27957314894E+03  0.00000000000E+00 0.  1.
         21    1    1    2  506  501 -0.47061967490E+02  0.60129105701E+02 -0.10710034161E+04  0.10737218706E+04  0.00000000000E+00 0.  1.
<scales pt_clust_3="120.35600" pt_clust_4="39.06583" pt_clust_5="39.06583" pt_clust_6="76.35665"></scales>
<clustering>
<clus scale="   39.066">  4  5 -1 -1</clus>
<clus scale="   76.357">  2  6  1 -1</clus>
<clus scale="  120.356">  2  3  1 -1</clus>
<clus scale="  126.674">  1  3  2 -1</clus>
</clustering>
</event>
<event>
 6    0  0.1555973E+002  0.1073095E+03  0.7546771E-02  0.1265635E+00
         21   -1    0    0  504  501  0.00000000000E+00  0.00000000000E+00  0.23045723751E+03  0.23045723751E+03  0.00000000000E+00 0.  1.
         21   -1    0    0  505  502 -0.00000000000E+00 -0.00000000000E+00 -0.72300380714E+03  0.72300380714E+03  0.00000000000E+00 0.  1.
         21    1    1    2  503  501 -0.30176311836E+02 -0.44736368941E+02  0.85099877300E+02  0.10076676842E+03  0.00000000000E+00 0.  1.
         21    1    1    2  504  502  0.69081373706E+02  0.22523697227E+02 -0.14311164722E+02  0.74056482266E+02  0.00000000000E+00 0.  1.
         21    1    1    2  505  506  0.50618760292E+02  0.77443492112E+02 -0.64115196772E+03  0.64779286742E+03  0.00000000000E+00 0.  1.
         21    1    1    2  506  503 -0.89523822163E+02 -0.55230820399E+02  0.77816685512E+02  0.13084492654E+03  0.00000000000E+00 0.  1.
<scales pt_clust_3="37.76841" pt_clust_4="72.66053" pt_clust_5="93.45973" pt_clust_6="37.76841"></scales>
<clustering>
<clus scale="   37.768">  3  6 -1 -1</clus>
<clus scale="   72.661">  1  4  2 -1</clus>
<clus scale="   93.460">  2  5  1 -1</clus>
<clus scale="   72.661">  1  3  2 -1</clus>
</clustering>
</event>
<event>
 6    0  0.1555973E+002  0.9709364E+02  0.7546771E-02  0.1286529E+00
         21   -1    0    0  504  501  0.00000000000E+00  0.00000000000E+00  0.10529455796E+04  0.10529455796E+04  0.00000000000E+00 0.  1.
         21   -1    0    0  503  502 -0.00000000000E+00 -0.00000000000E+00 -0.34109238908E+02  0.34109238908E+02  0.00000000000E+00 0. -1.
         21    1    1    2  503  505 -0.22847301339E+02 -0.27655327618E+02  0.57097806285E+01  0.36323792739E+02  0.00000000000E+00 0. -1.
         21    1    1    2  504  502  0.65198175807E+02  0.11939493252E+03  0.66367982741E+03  0.67747831357E+03  0.00000000000E+00 0.  1.
         21    1    1    2  505  506  0.16709238291E+02 -0.61483216124E+02  0.19527314366E+03  0.20540444285E+03  0.00000000000E+00 0. -1.
         21    1    1    2  506  501 -0.59060112759E+02 -0.30256388783E+02  0.15417358903E+03  0.16784826938E+03  0.00000000000E+00 0. -1.
<scales pt_clust_3="35.87222" pt_clust_4="97.09364" pt_clust_5="69.73725" pt_clust_6="14000.00000"></scales>
<clustering>
<clus scale="   35.872">  2  3  1 -1</clus>
<clus scale="   69.737">  2  5  1 -1</clus>
<clus scale="   97.094">  2  4  1 -1</clus>
<clus scale="   97.094">  1  3  2 -1</clus>
</clustering>
</event>
<event>
 6    0  0.1555973E+002  0.1089763E+03  0.7546771E-02  0.1262477E+00
         21   -1    0    0  504  501  0.00000000000E+00  0.00000000000E+00  0.14043927799E+03  0.14043927799E+03  0.00000000000E+00 0.  1.
         21   -1    0    0  505  502 -0.00000000000E+00 -0.00000000000E+00 -0.45591184061E+03  0.45591184061E+03  0.00000000000E+00 0.  1.
         21    1    1    2  503  502 -0.69815232849E+02 -0.14492564620E+02  0.69396518191E+02  0.99499135192E+02  0.00000000000E+00 0.  1.
         21    1    1    2  504  503 -0.33395970992E+02 -0.33060135791E+02 -0.45986258275E+01  0.47216637073E+02  0.00000000000E+00 0.  1.
         21    1    1    2  505  506  0.11165110192E+03  0.13744612121E+02 -0.39580715964E+03  0.41148291647E+03  0.00000000000E+00 0.  1.
         21    1    1    2  506  501 -0.84398980792E+01  0.33808088290E+02  0.15536704655E+02  0.38152429870E+02  0.00000000000E+00 0.  1.
<scales pt_clust_3="108.97630" pt_clust_4="44.01594" pt_clust_5="14000.00000" pt_clust_6="34.84564"></scales>
<clustering>
<clus scale="   34.846">  1  6  2 -1</clus>
<clus scale="   44.016">  1  4  2 -1</clus>
<clus scale="  108.976">  1  3  2 -1</clus>
<clus scale="   34.846">  1  3  2 -1</clus>
</clustering>
</event>
<event>
 6    0  0.1555973E+002  0.1090797E+03  0.7546771E-02  0.1262284E+00
         21   -1    0    0  504  501  0.00000000000E+00  0.00000000000E+00  0.63407694313E+03  0.63407694313E+03  0.00000000000E+00 0.  1.
         21   -1    0    0  505  502 -0.00000000000E+00 -0.00000000000E+00 -0.12183714690E+03  0.12183714690E+03  0.00000000000E+00 0.  1.
         21    1    1    2  503  501  0.11564199878E+03  0.90094765733E+02  0.29467817174E+03  0.32912818717E+03  0.00000000000E+00 0.  1.
         21    1    1    2  504  506 -0.34063897681E+02 -0.23936657018E+02  0.27265515951E+03  0.27581542503E+03  0.00000000000E+00 0.  1.
         21    1    1    2  505  503 -0.26492151209E+02  0.14792802466E+02  0.11615895699E+02  0.32489846312E+02  0.00000000000E+00 0.  1.
         21    1    1    2  506  502 -0.55085949886E+02 -0.80950911181E+02 -0.66709430723E+02  0.11848063151E+03  0.00000000000E+00 0.  1.
<scales pt_clust_3="14000.00000" pt_clust_4="41.82169" pt_clust_5="30.34240" pt_clust_6="109.07970"></scales>
<clustering>
<clus scale="   30.342">  2  5  1 -1</clus>
<clus scale="   41.822">  1  4  2 -1</clus>
<clus scale="  109.080">  2  6  1 -1</clus>
<clus scale="   41.822">  1  3  2 -1</clus>
</clustering>
</event>
<event>
 6    0  0.1555973E+002  0.1551000E+03  0.7546771E-02  0.1194343E+00
         21   -1    0    0  503  501  0.00000000000E+00  0.00000000000E+00  0.58238067483E+03  0.58238067483E+03  0.00000000000E+00 0. -1.
         21   -1    0    0  504  502 -0.00000000000E+00 -0.00000000000E+00 -0.12255241234E+04  0.12255241234E+04  0.00000000000E+00 0. -1.
         21    1    1    2  503  502  0.23069822852E+02 -0.41226387584E+02 -0.12007380954E+02  0.48744322306E+02  0.00000000000E+00 0. -1.
         21    1    1    2  504  505 -0.15680824896E+02  0.46982995030E+02 -0.11516390393E+04  0.11527036770E+04  0.00000000000E+00 0. -1.
         21    1    1    2  505  506 -0.31289294330E+02  0.14549172062E+03  0.18322911942E+03  0.23605035673E+03  0.00000000000E+00 0. -1.
         21    1    1    2  506  501  0.23900296375E+02 -0.15124832806E+03  0.33727385233E+03  0.37040644214E+03  0.00000000000E+00 0. -1.
<scales pt_clust_3="47.24227" pt_clust_4="49.48690" pt_clust_5="155.09999" pt_clust_6="14000.00000"></scales>
<clustering>
<clus scale="   47.242">  1  3  2 -1</clus>
<clus scale="   49.487">  2  4  1 -1</clus>
<clus scale="  155.100">  2  5  1 -1</clus>
<clus scale="   47.242">  1  3  2 -1</clus>
</clustering>
</event>
<event>
 6    0  0.1555973E+002  0.1216868E+03  0.7546771E-02  0.1240340E+00
         21   -1    0    0  506  501  0.00000000000E+00  0.00000000000E+00  0.57546228049E+03  0.57546228049E+03  0.00000000000E+00 0. -1.
         21   -1    0    0  505  502 -0.00000000000E+00 -0.00000000000E+00 -0.91787836399E+02  0.91787836399E+02  0.00000000000E+00 0. -1.
         21    1    1    2  503  504  0.42181802987E+02 -0.82597725703E+01  0.16370643020E+03  0.16925520268E+03  0.00000000000E+00 0. -1.
         21    1    1    2  504  502  0.40525321036E+02 -0.29321365511E+02  0.76585580413E+02  0.91473467452E+02  0.00000000000E+00 0. -1.
         21    1    1    2  505  501 -0.11870583712E+03 -0.67414321372E+01 -0.33728706430E+02  0.12358862533E+03  0.00000000000E+00 0. -1.
         21    1    1    2  506  503  0.35998713101E+02  0.44322570219E+02  0.27711113991E+03  0.28293282142E+03  0.00000000000E+00 0. -1.
<scales pt_clust_3="41.31474" pt_clust_4="41.31474" pt_clust_5="113.23123" pt_clust_6="57.09989"></scales>
<clustering>
<clus scale="   41.315">  3  4 -1 -1</clus>
<clus scale="   57.100">  1  6  2 -1</clus>
<clus scale="  113.231">  2  5  1 -1</clus>
<clus scale="   57.100">  1  3  2 -1</clus>
</clustering>
</event>
<event>
 6    0  0.1624528E+002  0.1182909E+03  0.7546771E-02  0.1245943E+00
         21   -1    0    0  504  501  0.00000000000E+00  0.00000000000E+00  0.67788959911E+03  0.67788959911E+03  0.00000000000E+00 0. -1.
         21   -1    0    0  503  502 -0.00000000000E+00 -0.00000000000E+00 -0.84096282327E+03  0.84096282327E+03  0.00000000000E+00 0.  1.
         21    1    1    2  503  506  0.15631712976E+02 -0.39981254142E+02 -0.44466354788E+03  0.44673092791E+03  0.00000000000E+00 0.  1.
         21    1    1    2  504  502 -0.94285652112E+02 -0.36757578129E+02  0.52853913873E+03  0.53813987486E+03  0.00000000000E+00 0. -1.
         21    1    1    2  505  501  0.57108485583E+01 -0.41918958219E+02  0.12756940568E+03  0.13440151083E+03  0.00000000000E+00 0.  1.
         21    1    1    2  506  505  0.72943090579E+02  0.11865779049E+03 -0.37451822068E+03  0.39958010877E+03  0.00000000000E+00 0.  1.
<scales pt_clust_3="43.00617" pt_clust_4="118.29092" pt_clust_5="42.30618" pt_clust_6="14000.00000"></scales>
<clustering>
<clus scale="   42.306">  1  5  2 -1</clus>
<clus scale="   43.006">  2  3  1 -1</clus>
<clus scale="  118.291">  1  4  2 -1</clus>
<clus scale="   42.306">  1  3  2 -1</clus>
</clustering>
</event>
<event>
 6    0  0.1555973E+002  0.1317534E+03  0.7546771E-02  0.1224877E+00
         21   -1    0    0  505  501  0.00000000000E+00  0.00000000000E+00  0.22700151376E+03  0.22700151376E+03  0.00000000000E+00 0. -1.
         21   -1    0    0  503  502 -0.00000000000E+00 -0.00000000000E+00 -0.83312276962E+03  0.83312276962E+03  0.00000000000E+00 0.  1.
         21    1    1    2  503  501  0.65909462245E+02  0.11863025822E+02 -0.75815432170E+03  0.76110627649E+03  0.00000000000E+00 0.  1.
         21    1    1    2  504  502 -0.42869026545E+02 -0.10247865010E+03  0.76368079340E+02  0.13480248776E+03  0.00000000000E+00 0. -1.
         21    1    1    2  505  506  0.18056906297E+02  0.10072512801E+03  0.62432984364E+02  0.11987276927E+03  0.00000000000E+00 0. -1.
         21    1    1    2  506  504 -0.41097341997E+02 -0.10109503730E+02  0.13232002139E+02  0.44342749863E+02  0.00000000000E+00 0. -1.
<scales pt_clust_3="66.96856" pt_clust_4="40.65602" pt_clust_5="114.10771" pt_clust_6="40.65602"></scales>
<clustering>
<clus scale="   40.656">  4  6 -1 -1</clus>
<clus scale="   66.969">  2  3  1 -1</clus>
<clus scale="  114.108">  1  5  2 -1</clus>
<clus scale="  114.108">  1  3  2 -1</clus>
</clustering>
</event>
<event>
 6    0  0.1555973E+002  0.1728767E+03  0.7546771E-02  0.1174881E+00
         21   -1    0    0  505  501  0.00000000000E+00  0.00000000000E+00  0.17006785464E+04  0.17006785464E+04  0.00000000000E+00 0. -1.
         21   -1    0    0  504  502 -0.00000000000E+00 -0.00000000000E+00 -0.70325097738E+02  0.70325097738E+02  0.00000000000E+00 0.  1.
         21    1    1    2  503  506 -0.27965515985E+02 -0.40339385304E+02  0.24374125403E+03  0.24863454106E+03  0.00000000000E+00 0. -1.
         21    1    1    2  504  503  0.67947485610E+02  0.55065944963E+02 -0.18854548342E+02  0.89468503332E+02  0.00000000000E+00 0.  1.
         21    1    1    2  505  502  0.47430906823E+02  0.70040383912E+02  0.15551291034E+03  0.17702997369E+03  0.00000000000E+00 0. -1.
         21    1    1    2  506  501 -0.87412876448E+02 -0.84766943570E+02  0.12499538326E+04  0.12558706261E+04  0.00000000000E+00 0. -1.
<scales pt_clust_3="37.27665" pt_clust_4="162.60175" pt_clust_5="84.58928" pt_clust_6="37.27665"></scales>
<clustering>
<clus scale="   37.277">  3  6 -1 -1</clus>
<clus scale="   84.589">  2  5  1 -1</clus>
<clus scale="  162.602">  2  4  1 -1</clus>
<clus scale="  172.877">  1  3  2 -1</clus>
</clustering>
</event>
<event>
 6    0  0.1555973E+002  0.1456513E+03  0.7546771E-02  0.1205921E+00
         21   -1    0    0  504  501  0.00000000000E+00  0.00000000000E+00  0.64699924139E+03  0.64699924139E+03  0.00000000000E+00 0.  1.
         21   -1    0    0  506  502 -0.00000000000E+00 -0.00000000000E+00 -0.29309781846E+03  0.29309781846E+03  0.00000000000E+00 0.  1.
         21    1    1    2  503  501 -0.94222648725E+02  0.14383620991E+03  0.35954927946E+03  0.39855043241E+03  0.00000000000E+00 0.  1.
         21    1    1    2  504  502 -0.94891967865E+01 -0.39567025764E+02  0.14523525497E+03  0.15082729750E+03  0.00000000000E+00 0.  1.
         21    1    1    2  505  503  0.60862832938E+02 -0.11161104280E+03  0.83657493017E+02  0.15218372267E+03  0.00000000000E+00 0.  1.
         21    1    1    2  506  505  0.42849012574E+02  0.73418586542E+01 -0.23454060452E+03  0.23853560727E+03  0.00000000000E+00 0.  1.
<scales pt_clust_3="145.65134" pt_clust_4="40.68900" pt_clust_5="14000.00000" pt_clust_6="43.40951"></scales>
<clustering>
<clus scale="   40.689">  1  4  2 -1</clus>
<clus scale="   43.410">  2  6  1 -1</clus>
<clus scale="  145.651">  1  3  2 -1</clus>
<clus scale="   40.689">  1  3  2 -1</clus>
</clustering>
</event>
<event>
 6    0  0.1555973E+002  0.1138864E+03  0.7546771E-02  0.1253538E+00
         21   -1    0    0  503  501  0.00000000000E+00  0.00000000000E+00  0.83216789112E+03  0.83216789112E+03  0.00000000000E+00 0. -1.
         21   -1    0    0  505  502 -0.00000000000E+00 -0.00000000000E+00 -0.10246743574E+03  0.10246743574E+03  0.00000000000E+00 0. -1.
         21    1    1    2  503  504 -0.89642363134E-01  0.63285459538E+02  0.10173657025E+03  0.11981396893E+03  0.00000000000E+00 0. -1.
         21    1    1    2  504  502  0.75748267508E+02  0.33227177727E+02  0.16051900527E+03  0.18057739732E+03  0.00000000000E+00 0. -1.
         21    1    1    2  505  506  0.38801833401E+02 -0.11265275868E+03 -0.30556071202E+02  0.12300365767E+03  0.00000000000E+00 0. -1.
         21    1    1    2  506  501 -0.11446045855E+03  0.16140121412E+02  0.49800095106E+03  0.51124030293E+03  0.00000000000E+00 0. -1.
<scales pt_clust_3="63.28552" pt_clust_4="89.75942" pt_clust_5="14000.00000" pt_clust_6="113.88641"></scales>
<clustering>
<clus scale="   63.286">  1  3  2 -1</clus>
<clus scale="   89.759">  1  4  2 -1</clus>
<clus scale="  113.886">  1  6  2 -1</clus>
<clus scale="   63.286">  1  3  2 -1</clus>
</clustering>
</event>
<event>
 6    0  0.1555973E+002  0.2047395E+03  0.7546771E-02  0.1145801E+00
         21   -1    0    0  503  501  0.00000000000E+00  0.00000000000E+00  0.71772885955E+03  0.71772885955E+03  0.00000000000E+00 0. -1.
         21   -1    0    0  504  502 -0.00000000000E+00 -0.00000000000E+00 -0.23240397983E+03  0.23240397983E+03  0.00000000000E+00 0. -1.
         21    1    1    2  503  502 -0.28170139362E+02 -0.17858708080E+02 -0.11331967195E+02  0.35226462872E+02  0.00000000000E+00 0. -1.
         21    1    1    2  504  505 -0.32992481969E+01  0.16174999127E+03 -0.10937452018E+03  0.19528627801E+03  0.00000000000E+00 0. -1.
         21    1    1    2  505  506 -0.34517527832E+02  0.38139667179E+02 -0.26678598573E+02  0.57946885697E+02  0.00000000000E+00 0. -1.
         21    1    1    2  506  501  0.65986915391E+02 -0.18203095037E+03  0.63270996566E+03  0.66167321280E+03  0.00000000000E+00 0. -1.
<scales pt_clust_3="33.35401" pt_clust_4="38.58272" pt_clust_5="38.58272" pt_clust_6="194.13310"></scales>
<clustering>
<clus scale="   33.354">  2  3  1 -1</clus>
<clus scale="   38.583">  4  5 -1 -1</clus>
<clus scale="  194.133">  1  6  2 -1</clus>
<clus scale="  194.133">  1  3  2 -1</clus>
</clustering>
</event>
<event>
 6    0  0.1555973E+002  0.6892754E+02  0.7546771E-02  0.1363778E+00
         21   -1    0    0  505  501  0.00000000000E+00  0.00000000000E+00  0.16194804420E+02  0.16194804420E+02  0.00000000000E+00 0. -1.
         21   -1    0    0  503  502 -0.00000000000E+00 -0.00000000000E+00 -0.29265006732E+04  0.29265006732E+04  0.00000000000E+00 0. -1.
         21    1    1    2  503  506 -0.29166399897E+02  0.64200111393E+02 -0.23130930801E+04  0.23141676539E+04  0.00000000000E+00 0. -1.
         21    1    1    2  504  501 -0.36892937443E+02 -0.20294078189E+02 -0.18856520067E+03  0.19320914405E+03  0.00000000000E+00 0. -1.
         21    1    1    2  505  502 -0.17311918364E+02 -0.61121212493E+02 -0.14606682134E+03  0.15928283470E+03  0.00000000000E+00 0. -1.
         21    1    1    2  506  504  0.83371255705E+02  0.17215179288E+02 -0.26258076667E+03  0.27603584496E+03  0.00000000000E+00 0. -1.
<scales pt_clust_3="14000.00000" pt_clust_4="42.10628" pt_clust_5="68.92754" pt_clust_6="65.89413"></scales>
<clustering>
<clus scale="   42.106">  1  4  2 -1</clus>
<clus scale="   65.894">  1  6  2 -1</clus>
<clus scale="   68.928">  1  5  2 -1</clus>
<clus scale="   42.106">  1  3  2 -1</clus>
</clustering>
</event>
<event>
 6    0  0.1555973E+002  0.1411853E+03  0.7546771E-02  0.1211743E+00
         21   -1    0    0  504  501  0.00000000000E+00  0.00000000000E+00  0.66347458509E+02  0.66347458509E+02  0.00000000000E+00 0. -1.
         21   -1    0    0  506  502 -0.00000000000E+00 -0.00000000000E+00 -0.10150343289E+04  0.10150343289E+04  0.00000000000E+00 0. -1.
         21    1    1    2  503  502 -0.33519721348E+01  0.33026346417E+02 -0.45379377586E+03  0.45500633653E+03  0.00000000000E+00 0. -1.
         21    1    1    2  504  505  0.59688671176E+01 -0.13530291010E+03 -0.98570814152E+02  0.16750734389E+03  0.00000000000E+00 0. -1.
         21    1    1    2  505  503  0.52697306881E+02 -0.44505929126E+02 -0.17039331039E+03  0.18382509106E+03  0.00000000000E+00 0. -1.
         21    1    1    2  506  501 -0.55314201864E+02  0.14678249281E+03 -0.22592896996E+03  0.27504301589E+03  0.00000000000E+00 0. -1.
<scales pt_clust_3="33.19601" pt_clust_4="141.18526" pt_clust_5="61.86652" pt_clust_6="14000.00000"></scales>
<clustering>
<clus scale="   33.196">  2  3  1 -1</clus>
<clus scale="   61.867">  2  5  1 -1</clus>
<clus scale="  141.185">  1  4  2 -1</clus>
<clus scale="  141.185">  1  3  2 -1</clus>
</clustering>
</event>
<event>
 6    0  0.1555973E+002  0.1090190E+03  0.7546771E-02  0.1262397E+00
         21   -1    0    0  504  501  0.00000000000E+00  0.00000000000E+00  0.63815476247E+03  0.63815476247E+03  0.00000000000E+00 0.  1.
         21   -1    0    0  506  502 -0.00000000000E+00 -0.00000000000E+00 -0.80930624606E+02  0.80930624606E+02  0.00000000000E+00 0.  1.
         21    1    1    2  503  505 -0.29660650068E+02  0.73933192767E+02  0.16545572422E+03  0.18363405957E+03  0.00000000000E+00 0.  1.
         21    1    1    2  504  502  0.89994117148E+01 -0.16242822940E+03  0.24123071872E+03  0.29095734872E+03  0.00000000000E+00 0.  1.
         21    1    1    2  505  501  0.39331655147E+02  0.26972971001E+02  0.17060234921E+03  0.17714311112E+03  0.00000000000E+00 0.  1.
         21    1    1    2  506  503 -0.18670416794E+02  0.61522065635E+02 -0.20064654295E+02  0.67350867665E+02  0.00000000000E+00 0.  1.
<scales pt_clust_3="14000.00000" pt_clust_4="109.01900" pt_clust_5="47.69193" pt_clust_6="65.06663"></scales>
<clustering>
<clus scale="   47.692">  1  5  2 -1</clus>
<clus scale="   65.067">  2  6  1 -1</clus>
<clus scale="  109.019">  2  4  1 -1</clus>
<clus scale="   47.692">  1  3  2 -1</clus>
</clustering>
</event>
<event>
 6    0  0.1555973E+002  0.1098476E+03  0.7546771E-02  0.1260852E+00
         21   -1    0    0  504  501  0.00000000000E+00  0.00000000000E+00  0.14680622247E+03  0.14680622247E+03  0.00000000000E+00 0.  1.
         21   -1    0    0  505  502 -0.00000000000E+00 -0.00000000000E+00 -0.33735330519E+03  0.33735330519E+03  0.00000000000E+00 0.  1.
         21    1    1    2  503  501  0.43843962363E+02 -0.38121775532E+02  0.65038750783E+02  0.87210102103E+02  0.00000000000E+00 0.  1.
         21    1    1    2  504  506 -0.12675801726E+02 -0.34029814683E+02  0.33756949846E+02  0.49580600033E+02  0.00000000000E+00 0.  1.
         21    1    1    2  505  503 -0.42509500753E+02  0.11120078809E+03 -0.28193163207E+03  0.30603613853E+03  0.00000000000E+00 0.  1.
         21    1    1    2  506  502  0.11341340116E+02 -0.39049197875E+02 -0.74111512802E+01  0.41332686988E+02  0.00000000000E+00 0.  1.
<scales pt_clust_3="14000.00000" pt_clust_4="36.31397" pt_clust_5="109.84759" pt_clust_6="45.49876"></scales>
<clustering>
<clus scale="   36.314">  1  4  2 -1</clus>
<clus scale="   45.499">  1  6  2 -1</clus>
<clus scale="  109.848">  2  5  1 -1</clus>
<clus scale="   36.314">  1  3  2 -1</clus>
</clustering>
</event>
<event>
 6    0  0.1555973E+002  0.1528034E+03  0.7546771E-02  0.1197070E+00
         21   -1    0    0  503  501  0.00000000000E+00  0.00000000000E+00  0.59940058333E+03  0.59940058333E+03  0.00000000000E+00 0.  1.
         21   -1    0    0  505  502 -0.00000000000E+00 -0.00000000000E+00 -0.35068716359E+03  0.35068716359E+03  0.00000000000E+00 0.  1.
         21    1    1    2  503  504 -0.13352371409E+02 -0.51529326729E+02  0.27239930341E+03  0.27755168497E+03  0.00000000000E+00 0.  1.
         21    1    1    2  504  502 -0.50031066085E+02 -0.28319728110E+02  0.23233717192E+03  0.23934426258E+03  0.00000000000E+00 0.  1.
         21    1    1    2  505  506  0.87045309812E+02  0.11895805573E+03 -0.32130164449E+03  0.35350056822E+03  0.00000000000E+00 0.  1.
         21    1    1    2  506  501 -0.23661872318E+02 -0.39109000896E+02  0.65278588901E+02  0.79691231146E+02  0.00000000000E+00 0. -1.
<scales pt_clust_3="43.34576" pt_clust_4="43.34576" pt_clust_5="146.01266" pt_clust_6="45.70993"></scales>
<clustering>
<clus scale="   43.346">  3  4 -1 -1</clus>
<clus scale="   45.710">  1  6  2 -1</clus>
<clus scale="  146.013">  2  5  1 -1</clus>
<clus scale="   45.710">  1  3  2 -1</clus>
</clustering>
</event>
<event>
 6    0  0.1555973E+002  0.7402751E+02  0.7546771E-02  0.1346909E+00
         21   -1    0    0  506  501  0.00000000000E+00  0.00000000000E+00  0.28178249232E+04  0.28178249232E+04  0.00000000000E+00 0. -1.
         21   -1    0    0  505  502 -0.00000000000E+00 -0.00000000000E+00 -0.83569446667E+03  0.83569446667E+03  0.00000000000E+00 0.  1.
         21    1    1    2  503  504 -0.84402677662E+02  0.43162222215E+02  0.32413135649E+03  0.33770982468E+03  0.00000000000E+00 0.  1.
         21    1    1    2  504  501  0.38426618295E+02  0.55938540342E+02  0.23735980977E+04  0.23745680986E+04  0.00000000000E+00 0. -1.
         21    1    1    2  505  503  0.35502678574E+02 -0.64933394520E+02 -0.82388955887E+03  0.82720661937E+03  0.00000000000E+00 0.  1.
         21    1    1    2  506  502  0.10473380793E+02 -0.34167368037E+02  0.10829056121E+03  0.11403484727E+03  0.00000000000E+00 0.  1.
<scales pt_clust_3="14000.00000" pt_clust_4="54.23485" pt_clust_5="74.02751" pt_clust_6="35.73655"></scales>
<clustering>
<clus scale="   35.737">  1  6  2 -1</clus>
<clus scale="   54.235">  1  4  2 -1</clus>
<clus scale="   74.028">  2  5  1 -1</clus>
<clus scale="   35.737">  1  3  2 -1</clus>
</clustering>
</event>
<event>
 6    0  0.1555973E+002  0.8550587E+02  0.7546771E-02  0.1314115E+00
         21   -1    0    0  506  501  0.00000000000E+00  0.00000000000E+00  0.74274176736E+03  0.74274176736E+03  0.00000000000E+00 0. -1.
         21   -1    0    0  504  502 -0.00000000000E+00 -0.00000000000E+00 -0.15499795109E+03  0.15499795109E+03  0.00000000000E+00 0.  1.
         21    1    1    2  503  501  0.57481252120E+02  0.34788412021E+02  0.52153127274E+03  0.52584141754E+03  0.00000000000E+00 0. -1.
         21    1    1    2  504  503 -0.30375896752E+02 -0.11959566600E+03 -0.10988107624E+03  0.16522611581E+03  0.00000000000E+00 0.  1.
         21    1    1    2  505  502 -0.40593570458E+01  0.39883147593E+02  0.24715177509E+02  0.47095475800E+02  0.00000000000E+00 0. -1.
         21    1    1    2  506  505 -0.23045998322E+02  0.44924106387E+02  0.15137844226E+03  0.15957670931E+03  0.00000000000E+00 0. -1.
<scales pt_clust_3="85.50587" pt_clust_4="14000.00000" pt_clust_5="40.08920" pt_clust_6="51.55653"></scales>
<clustering>
<clus scale="   40.089">  2  5  1 -1</clus>
<clus scale="   51.557">  1  6  2 -1</clus>
<clus scale="   85.506">  1  3  2 -1</clus>
<clus scale="   51.557">  1  3  2 -1</clus>
</clustering>
</event>
<event>
 6    0  0.1555973E+002  0.8024073E+02  0.7546771E-02  0.1328370E+00
         21   -1    0    0  505  501  0.00000000000E+00  0.00000000000E+00  0.47187481578E+03  0.47187481578E+03  0.00000000000E+00 0. -1.
         21   -1    0    0  503  502 -0.00000000000E+00 -0.00000000000E+00 -0.94074629760E+03  0.94074629760E+03  0.00000000000E+00 0.  1.
         21    1    1    2  503  501 -0.80970880909E+02 -0.10364884025E+02  0.50340888913E+01  0.81786651888E+02  0.00000000000E+00 0.  1.
         21    1    1    2  504  502  0.18885042600E+01 -0.58825977185E+02 -0.88520089281E+03  0.88715538812E+03  0.00000000000E+00 0.  1.
         21    1    1    2  505  506  0.96482229870E+01  0.73653982220E+02  0.32210708402E+03  0.33056159922E+03  0.00000000000E+00 0. -1.
         21    1    1    2  506  504  0.69434153662E+02 -0.44631210096E+01  0.89188238080E+02  0.11311747414E+03  0.00000000000E+00 0. -1.
<scales pt_clust_3="14000.00000" pt_clust_4="58.85628" pt_clust_5="69.78762" pt_clust_6="80.24073"></scales>
<clustering>
<clus scale="   58.856">  2  4  1 -1</clus>
<clus scale="   69.788">  1  5  2 -1</clus>
<clus scale="   80.241">  1  6  2 -1</clus>
<clus scale="   69.788">  1  3  2 -1</clus>
</clustering>
</event>
<event>
 6    0  0.1555973E+002  0.1007057E+03  0.7546771E-02  0.1278819E+00
         21   -1    0    0  504  501  0.00000000000E+00  0.00000000000E+00  0.41220360237E+03  0.41220360237E+03  0.00000000000E+00 0. -1.
         21   -1    0    0  506  502 -0.00000000000E+00 -0.00000000000E+00 -0.50302454866E+03  0.50302454866E+03  0.00000000000E+00 0. -1.
         21    1    1    2  503  502 -0.89852472583E+02 -0.81800063346E+02  0.21053937553E+03  0.24308752712E+03  0.00000000000E+00 0. -1.
         21    1    1    2  504  503 -0.25618414653E+02  0.16020719366E+02  0.88674981120E+02  0.93681475730E+02  0.00000000000E+00 0. -1.
         21    1    1    2  505  501  0.64088659108E+02  0.46752673669E+02  0.75616507869E+02  0.10959482188E+03  0.00000000000E+00 0. -1.
         21    1    1    2  506  505  0.51382228128E+02  0.19026670310E+02 -0.46565181082E+03  0.46886432629E+03  0.00000000000E+00 0. -1.
<scales pt_clust_3="14000.00000" pt_clust_4="30.21534" pt_clust_5="100.70570" pt_clust_6="54.69962"></scales>
<clustering>
<clus scale="   30.215">  1  4  2 -1</clus>
<clus scale="   54.700">  2  6  1 -1</clus>
<clus scale="  100.706">  1  5  2 -1</clus>
<clus scale="   30.215">  1  3  2 -1</clus>
</clustering>
</event>
<event>
 6    0  0.1555973E+002  0.1039986E+03  0.7546771E-02  0.1272105E+00
         21   -1    0    0  505  501  0.00000000000E+00  0.00000000000E+00  0.37331680160E+03  0.37331680160E+03  0.00000000000E+00 0. -1.
         21   -1    0    0  504  502 -0.00000000000E+00 -0.00000000000E+00 -0.94101377656E+03  0.94101377656E+03  0.00000000000E+00 0. -1.
         21    1    1    2  503  501 -0.31480616178E+02  0.37845961356E+02  0.22142325292E+03  0.22682945779E+03  0.00000000000E+00 0. -1.
         21    1    1    2  504  503 -0.13792400623E+02  0.45840598128E+02  0.11219118962E+03  0.12197726747E+03  0.00000000000E+00 0.  1.
         21    1    1    2  505  506 -0.43511660645E+02 -0.43056274536E+02 -0.23324883427E+01  0.61258043479E+02  0.00000000000E+00 0.  1.
         21    1    1    2  506  502  0.88784677445E+02 -0.40630284948E+02 -0.89897892916E+03  0.90426580941E+03  0.00000000000E+00 0. -1.
<scales pt_clust_3="35.75216" pt_clust_4="35.75216" pt_clust_5="61.21362" pt_clust_6="97.47441"></scales>
<clustering>
<clus scale="   35.752">  3  4 -1 -1</clus>
<clus scale="   61.214">  1  5  2 -1</clus>
<clus scale="   97.474">  2  6  1 -1</clus>
<clus scale="   61.214">  1  3  2 -1</clus>
</clustering>
</event>
<event>
 6    0  0.1555973E+002  0.2637557E+03  0.7546771E-02  0.1104908E+00
         21   -1    0    0  504  501  0.00000000000E+00  0.00000000000E+00  0.69484593096E+03  0.69484593096E+03  0.00000000000E+00 0. -1.
         21   -1    0    0  506  502 -0.00000000000E+00 -0.00000000000E+00 -0.86227432121E+02  0.86227432121E+02  0.00000000000E+00 0. -1.
         21    1    1    2  503  505 -0.75026656030E+01  0.11556433412E+03  0.10358380301E+03  0.15537377371E+03  0.00000000000E+00 0. -1.
         21    1    1    2  504  503 -0.14643827142E+02  0.80942284158E+02  0.18897103915E+03  0.20609742521E+03  0.00000000000E+00 0. -1.
         21    1    1    2  505  502  0.36893382056E+02  0.28784407568E+02  0.31748552658E+02  0.56547629079E+02  0.00000000000E+00 0. -1.
         21    1    1    2  506  501 -0.14746889311E+02 -0.22529102584E+03  0.28431510402E+03  0.36305453508E+03  0.00000000000E+00 0. -1.
<scales pt_clust_3="77.89550" pt_clust_4="77.89550" pt_clust_5="44.47568" pt_clust_6="225.77315"></scales>
<clustering>
<clus scale="   44.476">  3  5 -1 -1</clus>
<clus scale="   77.895">  3  4 -1 -1</clus>
<clus scale="  225.773">  1  6  2 -1</clus>
<clus scale="  225.773">  1  3  2 -1</clus>
</clustering>
</event>
<event>
 6    0  0.1555973E+002  0.1405260E+03  0.7546771E-02  0.1212623E+00
         21   -1    0    0  505  501  0.00000000000E+00  0.00000000000E+00  0.95713950366E+03  0.95713950366E+03  0.00000000000E+00 0. -1.
         21   -1    0    0  503  502 -0.00000000000E+00 -0.00000000000E+00 -0.18769234164E+03  0.18769234164E+03  0.00000000000E+00 0. -1.
         21    1    1    2  503  501 -0.55836853879E+02  0.67796269088E+02  0.38842102066E+03  0.39822729395E+03  0.00000000000E+00 0. -1.
         21    1    1    2  504  502  0.14596689918E+03  0.23350812100E+02 -0.13939724546E+03  0.20318264721E+03  0.00000000000E+00 0. -1.
         21    1    1    2  505  506 -0.54147490040E+02 -0.33246661370E+02  0.10722200998E+03  0.12463486910E+03  0.00000000000E+00 0.  1.
         21    1    1    2  506  504 -0.35982555265E+02 -0.57900419818E+02  0.41320137684E+03  0.41878703505E+03  0.00000000000E+00 0. -1.
<scales pt_clust_3="96.52069" pt_clust_4="140.52598" pt_clust_5="63.53968" pt_clust_6="14000.00000"></scales>
<clustering>
<clus scale="   63.540">  1  5  2 -1</clus>
<clus scale="   96.521">  1  3  2 -1</clus>
<clus scale="  140.526">  2  4  1 -1</clus>
<clus scale="   63.540">  1  3  2 -1</clus>
</clustering>
</event>
<event>
 6    0  0.1555973E+002  0.9970978E+02  0.7546771E-02  0.1280907E+00
         21   -1    0    0  504  501  0.00000000000E+00  0.00000000000E+00  0.92072401494E+02  0.92072401494E+02  0.00000000000E+00 0.  1.
         21   -1    0    0  506  502 -0.00000000000E+00 -0.00000000000E+00 -0.12375123187E+04  0.12375123187E+04  0.00000000000E+00 0.  1.
         21    1    1    2  503  502  0.17041909498E+02  0.69721693611E+02 -0.83435230597E+02  0.11005897939E+03  0.00000000000E+00 0. -1.
         21    1    1    2  504  503  0.34061324009E+01  0.75232664073E+02 -0.14442618630E+03  0.16288179385E+03  0.00000000000E+00 0.  1.
         21    1    1    2  505  501 -0.42927833159E+02 -0.57988145809E+02  0.48154473164E+02  0.86742591614E+02  0.00000000000E+00 0.  1.
         21    1    1    2  506  505  0.22479791260E+02 -0.86966211875E+02 -0.96573297350E+03  0.96990135536E+03  0.00000000000E+00 0.  1.
<scales pt_clust_3="33.04776" pt_clust_4="33.04776" pt_clust_5="72.14862" pt_clust_6="93.78746"></scales>
<clustering>
<clus scale="   33.048">  3  4 -1 -1</clus>
<clus scale="   72.149">  1  5  2 -1</clus>
<clus scale="   93.787">  2  6  1 -1</clus>
<clus scale="   72.149">  1  3  2 -1</clus>
</clustering>
</event>
<event>
 6    0  0.1555973E+002  0.8866188E+02  0.7546771E-02  0.1306125E+00
         21   -1    0    0  504  501  0.00000000000E+00  0.00000000000E+00  0.18677938990E+03  0.18677938990E+03  0.00000000000E+00 0.  1.
         21   -1    0    0  503  502 -0.00000000000E+00 -0.00000000000E+00 -0.59385575048E+03  0.59385575048E+03  0.00000000000E+00 0.  1.
         21    1    1    2  503  506  0.27597328481E+02 -0.71083774158E+02 -0.19837835273E+02  0.78791212684E+02  0.00000000000E+00 0. -1.
         21    1    1    2  504  502 -0.10910660153E+02 -0.43464921047E+02 -0.51566646794E+03  0.51761003470E+03  0.00000000000E+00 0.  1.
         21    1    1    2  505  501 -0.33673100746E+02  0.29230817374E+02  0.51334981150E+02  0.67997049112E+02  0.00000000000E+00 0.  1.
         21    1    1    2  506  505  0.16986432418E+02  0.85317877831E+02  0.77092961491E+02  0.11623684388E+03  0.00000000000E+00 0.  1.
<scales pt_clust_3="14000.00000" pt_clust_4="44.66038" pt_clust_5="44.59056" pt_clust_6="88.66188"></scales>
<clustering>
<clus scale="   44.591">  1  5  2 -1</clus>
<clus scale="   44.660">  2  4  1 -1</clus>
<clus scale="   88.662">  1  6  2 -1</clus>
<clus scale="   44.591">  1  3  2 -1</clus>
</clustering>
</event>
<event>
 6    0  0.1555973E+002  0.1451293E+03  0.7546771E-02  0.1206589E+00
         21   -1    0    0  502  501  0.00000000000E+00  0.00000000000E+00  0.44347864650E+03  0.44347864650E+03  0.00000000000E+00 0.  1.
         21   -1    0    0  506  502 -0.00000000000E+00 -0.00000000000E+00 -0.36982153301E+03  0.36982153301E+03  0.00000000000E+00 0.  1.
         21    1    1    2  503  504 -0.85160920071E+02  0.75075006705E+02  0.11894969250E+02  0.11414959147E+03  0.00000000000E+00 0. -1.
         21    1    1    2  504  505  0.10484627089E+03 -0.67710991634E+02  0.29354948664E+03  0.31898090854E+03  0.00000000000E+00 0.  1.
         21    1    1    2  505  501  0.51558476005E+02 -0.49955224114E+02  0.49296845649E+02  0.87086048568E+02  0.00000000000E+00 0.  1.
         21    1    1    2  506  503 -0.71243826829E+02  0.42591209043E+02 -0.28108418805E+03  0.29308363093E+03  0.00000000000E+00 0.  1.
<scales pt_clust_3="14000.00000" pt_clust_4="145.12931" pt_clust_5="71.78998" pt_clust_6="81.88732"></scales>
<clustering>
<clus scale="   71.790">  1  5  2 -1</clus>
<clus scale="   81.887">  2  6  1 -1</clus>
<clus scale="  145.129">  1  4  2 -1</clus>
<clus scale="   71.790">  1  3  2 -1</clus>
</clustering>
</event>
<event>
 6    0  0.1555973E+002  0.1217663E+03  0.7546771E-02  0.1240211E+00
         21   -1    0    0  506  501  0.00000000000E+00  0.00000000000E+00  0.28382364046E+03  0.28382364046E+03  0.00000000000E+00 0.  1.
         21   -1    0    0  503  502 -0.00000000000E+00 -0.00000000000E+00 -0.11453681420E+04  0.11453681420E+04  0.00000000000E+00 0.  1.
         21    1    1    2  503  504  0.76021753708E+02 -0.52870279634E+02 -0.10143870652E+04  0.10186047769E+04  0.00000000000E+00 0.  1.
         21    1    1    2  504  501 -0.43944565920E+02 -0.19039705211E+01  0.98556043504E+01  0.45076411955E+02  0.00000000000E+00 0.  1.
         21    1    1    2  505  502  0.50042554348E+02  0.63324289795E+02 -0.88478389363E+02  0.11976079621E+03  0.00000000000E+00 0. -1.
         21    1    1    2  506  505 -0.82119742137E+02 -0.85500396398E+01  0.23146534873E+03  0.24574979733E+03  0.00000000000E+00 0.  1.
<scales pt_clust_3="14000.00000" pt_clust_4="43.98579" pt_clust_5="78.98332" pt_clust_6="121.76626"></scales>
<clustering>
<clus scale="   43.986">  1  4  2 -1</clus>
<clus scale="   78.983">  2  5  1 -1</clus>
<clus scale="  121.766">  1  6  2 -1</clus>
<clus scale="   43.986">  1  3  2 -1</clus>
</clustering>
</event>
<event>
 6    0  0.1555973E+002  0.1469299E+03  0.7546771E-02  0.1204297E+00
         21   -1    0    0  504  501  0.00000000000E+00  0.00000000000E+00  0.16438758603E+03  0.16438758603E+03  0.00000000000E+00 0.  1.
         21   -1    0    0  503  502 -0.00000000000E+00 -0.00000000000E+00 -0.89403145795E+03  0.89403145795E+03  0.00000000000E+00 0. -1.
         21    1    1    2  503  501  0.57013265156E+02 -0.72566692534E+02  0.51523349632E+02  0.10569339065E+03  0.00000000000E+00 0. -1.
         21    1    1    2  504  505 -0.16236337913E+02  0.40899880752E+02  0.18707696630E+02  0.47816282034E+02  0.00000000000E+00 0.  1.
         21    1    1    2  505  506  0.66556054986E+02  0.13337131091E+03 -0.78358721010E+02  0.16839745897E+03  0.00000000000E+00 0.  1.
         21    1    1    2  506  502 -0.10733298223E+03 -0.10170449913E+03 -0.72151619717E+03  0.73651191233E+03  0.00000000000E+00 0. -1.
<scales pt_clust_3="67.40885" pt_clust_4="44.00476" pt_clust_5="146.92994" pt_clust_6="14000.00000"></scales>
<clustering>
<clus scale="   44.005">  1  4  2 -1</clus>
<clus scale="   67.409">  1  3  2 -1</clus>
<clus scale="  146.930">  1  5  2 -1</clus>
<clus scale="   44.005">  1  3  2 -1</clus>
</clustering>
</event>
<event>
 6    0  0.1555973E+002  0.1817946E+03  0.7546771E-02  0.1166077E+00
         21   -1    0    0  505  501  0.00000000000E+00  0.00000000000E+00  0.25174517276E+04  0.25174517276E+04  0.00000000000E+00 0.  1.
         21   -1    0    0  503  502 -0.00000000000E+00 -0.00000000000E+00 -0.85904350641E+02  0.85904350641E+02  0.00000000000E+00 0.  1.
         21    1    1    2  503  501 -0.10905473398E+03 -0.13270057329E+03  0.12173675297E+04  0.12294251012E+04  0.00000000000E+00 0.  1.
         21    1    1    2  504  506  0.94159426625E+02  0.59250539660E+02  0.58610401032E+03  0.59656896917E+03  0.00000000000E+00 0.  1.
         21    1    1    2  505  504  0.37718011318E+02  0.36205924342E+02  0.69526183859E+03  0.69722488591E+03  0.00000000000E+00 0. -1.
         21    1    1    2  506  502 -0.22822703963E+02  0.37244109286E+02 -0.67186001651E+02  0.80137121926E+02  0.00000000000E+00 0.  1.
<scales pt_clust_3="165.97825" pt_clust_4="50.85459" pt_clust_5="50.85459" pt_clust_6="43.68065"></scales>
<clustering>
<clus scale="   43.681">  2  6  1 -1</clus>
<clus scale="   50.855">  4  5 -1 -1</clus>
<clus scale="  165.978">  2  3  1 -1</clus>
<clus scale="  181.795">  1  3  2 -1</clus>
</clustering>
</event>
<event>
 6    0  0.1555973E+002  0.1264339E+03  0.7546771E-02  0.1232845E+00
         21   -1    0    0  505  501  0.00000000000E+00  0.00000000000E+00  0.46575185683E+02  0.46575185683E+02  0.00000000000E+00 0.  1.
         21   -1    0    0  503  502 -0.00000000000E+00 -0.00000000000E+00 -0.98214932806E+03  0.98214932806E+03  0.00000000000E+00 0.  1.
         21    1    1    2  503  504  0.65633888591E+02  0.90073546336E+02 -0.69123267878E+03  0.70015974412E+03  0.00000000000E+00 0.  1.
         21    1    1    2  504  506 -0.38367598533E+02 -0.38583422272E+02 -0.77732196356E+02  0.94884389874E+02  0.00000000000E+00 0.  1.
         21    1    1    2  505  502 -0.82008067044E+01  0.54858281135E+02 -0.49489505443E+02  0.74336366529E+02  0.00000000000E+00 0.  1.
         21    1    1    2  506  501 -0.19065483353E+02 -0.10634840520E+03 -0.11711976180E+03  0.15934401322E+03  0.00000000000E+00 0.  1.
<scales pt_clust_3="116.72417" pt_clust_4="34.48249" pt_clust_5="55.46787" pt_clust_6="34.48249"></scales>
<clustering>
<clus scale="   34.482">  4  6 -1 -1</clus>
<clus scale="   55.468">  1  5  2 -1</clus>
<clus scale="  116.724">  2  3  1 -1</clus>
<clus scale="   55.468">  1  3  2 -1</clus>
</clustering>
</event>
<event>
 6    0  0.1555973E+002  0.1245838E+03  0.7546771E-02  0.1235721E+00
         21   -1    0    0  503  501  0.00000000000E+00  0.00000000000E+00  0.11276496393E+04  0.11276496393E+04  0.00000000000E+00 0.  1.
         21   -1    0    0  506  502 -0.00000000000E+00 -0.00000000000E+00 -0.43728901040E+02  0.43728901040E+02  0.00000000000E+00 0.  1.
         21    1    1    2  503  504 -0.20503760157E+01  0.36835592288E+02  0.19998345169E+03  0.20335792546E+03  0.00000000000E+00 0.  1.
         21    1    1    2  504  502  0.11791844634E+03 -0.27558770302E+02  0.59790087698E+02  0.13505221359E+03  0.00000000000E+00 0.  1.
         21    1    1    2  505  501 -0.56105691092E+02 -0.85448623226E+01  0.51327935022E+03  0.51640735336E+03  0.00000000000E+00 0.  1.
         21    1    1    2  506  505 -0.59762379231E+02 -0.73195966349E+00  0.31086784862E+03  0.31656104789E+03  0.00000000000E+00 0.  1.
<scales pt_clust_3="36.89261" pt_clust_4="120.06179" pt_clust_5="32.41126" pt_clust_6="32.41126"></scales>
<clustering>
<clus scale="   32.411">  5  6 -1 -1</clus>
<clus scale="   36.893">  1  3  2 -1</clus>
<clus scale="  120.062">  2  4  1 -1</clus>
<clus scale="   36.893">  1  3  2 -1</clus>
</clustering>
</event>
<event>
 6    0  0.1555973E+002  0.3497068E+03  0.7546771E-02  0.1062735E+00
         21   -1    0    0  502  501  0.00000000000E+00  0.00000000000E+00  0.20053664769E+03  0.20053664769E+03  0.00000000000E+00 0. -1.
         21   -1    0    0  504  502 -0.00000000000E+00 -0.00000000000E+00 -0.34393422536E+04  0.34393422536E+04  0.00000000000E+00 0. -1.
         21    1    1    2  503  501 -0.24407356748E+03 -0.14095566309E+02 -0.11363186415E+02  0.24474417938E+03  0.00000000000E+00 0. -1.
         21    1    1    2  504  505 -0.39640827539E+02 -0.13200404286E+02 -0.24579214257E+04  0.24582765061E+04  0.00000000000E+00 0. -1.
         21    1    1    2  505  506  0.37147559376E+03  0.67243654341E+02 -0.74828715897E+03  0.83812260325E+03  0.00000000000E+00 0. -1.
         21    1    1    2  506  503 -0.87761198735E+02 -0.39947683747E+02 -0.21233834885E+02  0.98735612542E+02  0.00000000000E+00 0. -1.
<scales pt_clust_3="39.12328" pt_clust_4="41.78093" pt_clust_5="344.11345" pt_clust_6="39.12328"></scales>
<clustering>
<clus scale="   39.123">  3  6 -1 -1</clus>
<clus scale="   41.781">  2  4  1 -1</clus>
<clus scale="  344.113">  2  5  1 -1</clus>
<clus scale="  349.707">  1  3  2 -1</clus>
</clustering>
</event>
<event>
 6    0  0.1555973E+002  0.1351342E+03  0.7546771E-02  0.1220030E+00
         21   -1    0    0  505  501  0.00000000000E+00  0.00000000000E+00  0.58322144735E+03  0.58322144735E+03  0.00000000000E+00 0.  1.
         21   -1    0    0  501  502 -0.00000000000E+00 -0.00000000000E+00 -0.33387844523E+03  0.33387844523E+03  0.00000000000E+00 0.  1.
         21    1    1    2  503  506 -0.60644876519E+02  0.17007736502E+02  0.17564729254E+03  0.18659859465E+03  0.00000000000E+00 0.  1.
         21    1    1    2  504  502  0.39438517252E+02 -0.97787740912E+01 -0.26723161803E+03  0.27030308681E+03  0.00000000000E+00 0.  1.
         21    1    1    2  505  503 -0.44250126263E+02  0.56027175338E+02  0.36015471959E+03  0.36716282504E+03  0.00000000000E+00 0.  1.
         21    1    1    2  506  504  0.65456485530E+02 -0.63256137749E+02 -0.19227391980E+02  0.93035386081E+02  0.00000000000E+00 0.  1.
<scales pt_clust_3="52.55574" pt_clust_4="40.63276" pt_clust_5="52.55574" pt_clust_6="122.59853"></scales>
<clustering>
<clus scale="   40.633">  2  4  1 -1</clus>
<clus scale="   52.556">  3  5 -1 -1</clus>
<clus scale="  122.599">  2  6  1 -1</clus>
<clus scale="  135.134">  1  3  2 -1</clus>
</clustering>
</event>
<event>
 6    0  0.1555973E+002  0.2418932E+03  0.7546771E-02  0.1118538E+00
         21   -1    0    0  505  501  0.00000000000E+00  0.00000000000E+00  0.25249563795E+03  0.25249563795E+03  0.00000000000E+00 0.  1.
         21   -1    0    0  503  502 -0.00000000000E+00 -0.00000000000E+00 -0.13796028043E+04  0.13796028043E+04  0.00000000000E+00 0. -1.
         21    1    1    2  503  501 -0.20532989385E+02  0.55299840116E+02 -0.28100938428E+02  0.65340176848E+02  0.00000000000E+00 0.  1.
         21    1    1    2  504  502  0.16347232820E+03  0.16695492346E+03 -0.10937544958E+04  0.11184346407E+04  0.00000000000E+00 0. -1.
         21    1    1    2  505  506  0.43923626686E+02  0.54200067396E+02  0.77761098578E+02  0.10446875485E+03  0.00000000000E+00 0.  1.
         21    1    1    2  506  504 -0.18686296550E+03 -0.27645483097E+03 -0.83012830740E+02  0.34385486983E+03  0.00000000000E+00 0.  1.
<scales pt_clust_3="58.98878" pt_clust_4="14000.00000" pt_clust_5="83.83153" pt_clust_6="241.89320"></scales>
<clustering>
<clus scale="   58.989">  1  3  2 -1</clus>
<clus scale="   83.832">  1  5  2 -1</clus>
<clus scale="  241.893">  1  6  2 -1</clus>
<clus scale="   58.989">  1  3  2 -1</clus>
</clustering>
</event>
<event>
 6    0  0.1555973E+002  0.2448032E+03  0.7546771E-02  0.1116634E+00
         21   -1    0    0  504  501  0.00000000000E+00  0.00000000000E+00  0.51665920269E+03  0.51665920269E+03  0.00000000000E+00 0. -1.
         21   -1    0    0  503  502 -0.00000000000E+00 -0.00000000000E+00 -0.24114953148E+03  0.24114953148E+03  0.00000000000E+00 0. -1.
         21    1    1    2  503  505  0.18037596314E+02  0.22580507591E+03 -0.13297690734E+03  0.26267117290E+03  0.00000000000E+00 0. -1.
         21    1    1    2  504  502  0.30126888006E+02  0.14639615597E+01  0.43143100342E+02  0.52641235467E+02  0.00000000000E+00 0.  1.
         21    1    1    2  505  506 -0.12037085971E+02 -0.51733715216E+02  0.26916399645E+02  0.59546295423E+02  0.00000000000E+00 0. -1.
         21    1    1    2  506  501 -0.36127398349E+02 -0.17553532225E+03  0.33842707857E+03  0.38295003039E+03  0.00000000000E+00 0. -1.
<scales pt_clust_3="227.09580" pt_clust_4="30.16244" pt_clust_5="50.04736" pt_clust_6="50.04736"></scales>
<clustering>
<clus scale="   30.162">  1  4  2 -1</clus>
<clus scale="   50.047">  5  6 -1 -1</clus>
<clus scale="  227.096">  2  3  1 -1</clus>
<clus scale="   30.162">  1  3  2 -1</clus>
</clustering>
</event>
<event>
 6    0  0.1555973E+002  0.1418190E+03  0.7546771E-02  0.1210902E+00
         21   -1    0    0  503  501  0.00000000000E+00  0.00000000000E+00  0.30899745364E+03  0.30899745364E+03  0.00000000000E+00 0.  1.
         21   -1    0    0  505  502 -0.00000000000E+00 -0.00000000000E+00 -0.48031550276E+03  0.48031550276E+03  0.00000000000E+00 0.  1.
         21    1    1    2  503  504  0.43396728479E+02 -0.65050366502E+02 -0.38168408837E+03  0.38961207571E+03  0.00000000000E+00 0.  1.
         21    1    1    2  504  502  0.75686374454E+02 -0.81762118055E+01 -0.57358927690E+02  0.95316967551E+02  0.00000000000E+00 0. -1.
         21    1    1    2  505  506 -0.58527293523E+02  0.34657311297E+02  0.90837398031E+02  0.11348130328E+03  0.00000000000E+00 0.  1.
         21    1    1    2  506  501 -0.60555809410E+02  0.38569267010E+02  0.17688756892E+03  0.19090260985E+03  0.00000000000E+00 0.  1.
<scales pt_clust_3="136.68444" pt_clust_4="76.12672" pt_clust_5="36.80722" pt_clust_6="36.80722"></scales>
<clustering>
<clus scale="   36.807">  5  6 -1 -1</clus>
<clus scale="   76.127">  2  4  1 -1</clus>
<clus scale="  136.684">  2  3  1 -1</clus>
<clus scale="  141.819">  1  3  2 -1</clus>
</clustering>
</event>
<event>
 6    0  0.1555973E+002  0.1809340E+03  0.7546771E-02  0.1166902E+00
         21   -1    0    0  503  501  0.00000000000E+00  0.00000000000E+00  0.59614318716E+02  0.59614318716E+02  0.00000000000E+00 0.  1.
         21   -1    0    0  506  502 -0.00000000000E+00 -0.00000000000E+00 -0.14508806889E+04  0.14508806889E+04  0.00000000000E+00 0.  1.
         21    1    1    2  503  504  0.25799036944E+02 -0.26913277282E+02 -0.62369932217E+02  0.72663080350E+02  0.00000000000E+00 0.  1.
         21    1    1    2  504  502  0.57729309457E+02 -0.15442038076E+03 -0.11501617717E+04  0.11619167045E+04  0.00000000000E+00 0.  1.
         21    1    1    2  505  501 -0.24322189607E+02  0.51985653980E+02 -0.15616045255E+02  0.59480568225E+02  0.00000000000E+00 0.  1.
         21    1    1    2  506  505 -0.59206156793E+02  0.12934800406E+03 -0.16311862103E+03  0.21643465453E+03  0.00000000000E+00 0.  1.
<scales pt_clust_3="37.28156" pt_clust_4="168.56113" pt_clust_5="38.74148" pt_clust_6="38.74148"></scales>
<clustering>
<clus scale="   37.282">  1  3  2 -1</clus>
<clus scale="   38.741">  5  6 -1 -1</clus>
<clus scale="  168.561">  2  4  1 -1</clus>
<clus scale="   37.282">  1  3  2 -1</clus>
</clustering>
</event>
<event>
 6    0  0.1555973E+002  0.1034092E+03  0.7546771E-02  0.1273286E+00
         21   -1    0    0  506  501  0.00000000000E+00  0.00000000000E+00  0.51957734646E+03  0.51957734646E+03  0.00000000000E+00 0.  1.
         21   -1    0    0  505  502 -0.00000000000E+00 -0.00000000000E+00 -0.11933513261E+03  0.11933513261E+03  0.00000000000E+00 0. -1.
         21    1    1    2  503  502  0.19262775579E+02 -0.11394429467E+03 -0.71558956450E+02  0.13592292323E+03  0.00000000000E+00 0. -1.
         21    1    1    2  504  501  0.11098968694E+02  0.50861420490E+02  0.31915796622E+03  0.32337575451E+03  0.00000000000E+00 0.  1.
         21    1    1    2  505  504  0.82354215261E+00  0.63400213128E+02  0.99008300736E+02  0.11757086740E+03  0.00000000000E+00 0.  1.
         21    1    1    2  506  503 -0.31185286426E+02 -0.31733894447E+00  0.53634903348E+02  0.62042933929E+02  0.00000000000E+00 0.  1.
<scales pt_clust_3="103.40923" pt_clust_4="51.73792" pt_clust_5="14000.00000" pt_clust_6="31.18690"></scales>
<clustering>
<clus scale="   31.187">  1  6  2 -1</clus>
<clus scale="   51.738">  1  4  2 -1</clus>
<clus scale="  103.409">  2  3  1 -1</clus>
<clus scale="   31.187">  1  3  2 -1</clus>
</clustering>
</event>
<event>
 6    0  0.1555973E+002  0.1267632E+03  0.7546771E-02  0.1232339E+00
         21   -1    0    0  506  501  0.00000000000E+00  0.00000000000E+00  0.36102546378E+02  0.36102546378E+02  0.00000000000E+00 0. -1.
         21   -1    0    0  503  502 -0.00000000000E+00 -0.00000000000E+00 -0.11493145748E+04  0.11493145748E+04  0.00000000000E+00 0. -1.
         21    1    1    2  503  504 -0.72653223151E+02  0.11326689839E+02 -0.34449117971E+03  0.35225127060E+03  0.00000000000E+00 0. -1.
         21    1    1    2  504  501 -0.34262789606E+02 -0.18864531232E+02 -0.94148201414E+02  0.10194946356E+03  0.00000000000E+00 0. -1.
         21    1    1    2  505  502 -0.37622902811E+01  0.63210321467E+02 -0.55643869452E+03  0.56003010663E+03  0.00000000000E+00 0. -1.
         21    1    1    2  506  505  0.11067830304E+03 -0.55672480074E+02 -0.11813395280E+03  0.17118628042E+03  0.00000000000E+00 0. -1.
<scales pt_clust_3="35.77401" pt_clust_4="35.77401" pt_clust_5="63.32219" pt_clust_6="116.88864"></scales>
<clustering>
<clus scale="   35.774">  3  4 -1 -1</clus>
<clus scale="   63.322">  2  5  1 -1</clus>
<clus scale="  116.889">  1  6  2 -1</clus>
<clus scale="  116.889">  1  3  2 -1</clus>
</clustering>
</event>
<event>
 6    0  0.1555973E+002  0.1354586E+03  0.7546771E-02  0.1219574E+00
         21   -1    0    0  503  501  0.00000000000E+00  0.00000000000E+00  0.14292996484E+04  0.14292996484E+04  0.00000000000E+00 0. -1.
         21   -1    0    0  506  502 -0.00000000000E+00 -0.00000000000E+00 -0.61436120546E+02  0.61436120546E+02  0.00000000000E+00 0.  1.
         21    1    1    2  503  505 -0.13106473808E+03 -0.17946516122E+02  0.93629116854E+03  0.94559039509E+03  0.00000000000E+00 0. -1.
         21    1    1    2  504  502  0.50785373063E+02  0.41494438505E+02  0.13601684694E+03  0.15100173904E+03  0.00000000000E+00 0.  1.
         21    1    1    2  505  504  0.40179455221E+02  0.64556569997E+02  0.28707190506E+03  0.29697174618E+03  0.00000000000E+00 0.  1.
         21    1    1    2  506  501  0.40099909798E+02 -0.88104492380E+02  0.84836072961E+01  0.97171888610E+02  0.00000000000E+00 0.  1.
<scales pt_clust_3="127.25678" pt_clust_4="43.10915" pt_clust_5="43.10915" pt_clust_6="96.80085"></scales>
<clustering>
<clus scale="   43.109">  4  5 -1 -1</clus>
<clus scale="   96.801">  2  6  1 -1</clus>
<clus scale="  127.257">  1  3  2 -1</clus>
<clus scale="  127.257">  1  3  2 -1</clus>
</clustering>
</event>
<event>
 6    0  0.1555973E+002  0.1090695E+03  0.7546771E-02  0.1262303E+00
         21   -1    0    0  506  501  0.00000000000E+00  0.00000000000E+00  0.22135268906E+03  0.22135268906E+03  0.00000000000E+00 0.  1.
         21   -1    0    0  504  502 -0.00000000000E+00 -0.00000000000E+00 -0.38448311350E+03  0.38448311350E+03  0.00000000000E+00 0. -1.
         21    1    1    2  503  505 -0.15202110726E+02  0.87719477732E+02  0.12713963129E+02  0.89930283012E+02  0.00000000000E+00 0.  1.
         21    1    1    2  504  503  0.23750785546E+02 -0.21620086572E+02 -0.25047382683E+03  0.25252458471E+03  0.00000000000E+00 0. -1.
         21    1    1    2  505  501 -0.21629438359E+02  0.71816743682E+02  0.97457741792E+02  0.12297759435E+03  0.00000000000E+00 0.  1.
         21    1    1    2  506  502  0.13080763539E+02 -0.13791613484E+03 -0.22828302531E+02  0.14040334049E+03  0.00000000000E+00 0.  1.
<scales pt_clust_3="14000.00000" pt_clust_4="32.11741" pt_clust_5="72.37699" pt_clust_6="109.06953"></scales>
<clustering>
<clus scale="   32.117">  2  4  1 -1</clus>
<clus scale="   72.377">  1  5  2 -1</clus>
<clus scale="  109.070">  1  6  2 -1</clus>
<clus scale="   72.377">  1  3  2 -1</clus>
</clustering>
</event>
<event>
 6    0  0.1555973E+002  0.9138757E+02  0.7546771E-02  0.1299526E+00
         21   -1    0    0  504  501  0.00000000000E+00  0.00000000000E+00  0.11457763569E+04  0.11457763569E+04  0.00000000000E+00 0. -1.
         21   -1    0    0  503  502 -0.00000000000E+00 -0.00000000000E+00 -0.23129952667E+03  0.23129952667E+03  0.00000000000E+00 0. -1.
         21    1    1    2  503  501  0.40305930740E+02  0.12173060182E+02  0.31274143367E+02  0.52448293494E+02  0.00000000000E+00 0.  1.
         21    1    1    2  504  505  0.26887005825E+02 -0.61468437146E+02  0.46488582396E+03  0.46970214942E+03  0.00000000000E+00 0. -1.
         21    1    1    2  505  506 -0.10548717367E+03  0.11210371361E+02  0.62876841561E+03  0.63765424543E+03  0.00000000000E+00 0. -1.
         21    1    1    2  506  502  0.38294237102E+02  0.38085005603E+02 -0.21045155271E+03  0.21727119525E+03  0.00000000000E+00 0. -1.
<scales pt_clust_3="42.10405" pt_clust_4="67.14768" pt_clust_5="14000.00000" pt_clust_6="91.38757"></scales>
<clustering>
<clus scale="   42.104">  2  3  1 -1</clus>
<clus scale="   67.148">  1  4  2 -1</clus>
<clus scale="   91.388">  2  6  1 -1</clus>
<clus scale="   67.148">  1  3  2 -1</clus>
</clustering>
</event>
<event>
 6    0  0.1555973E+002  0.1960271E+03  0.7546771E-02  0.1153135E+00
         21   -1    0    0  504  501  0.00000000000E+00  0.00000000000E+00  0.56006907320E+03  0.56006907320E+03  0.00000000000E+00 0. -1.
         21   -1    0    0  506  502 -0.00000000000E+00 -0.00000000000E+00 -0.32490537513E+04  0.32490537513E+04  0.00000000000E+00 0.  1.
         21    1    1    2  503  501 -0.40343961506E+02 -0.11624450007E+02 -0.25935537685E+02  0.49349925866E+02  0.00000000000E+00 0.  1.
         21    1    1    2  504  505 -0.86136544830E+01  0.16507765852E+03  0.51912669686E+03  0.54480946741E+03  0.00000000000E+00 0. -1.
         21    1    1    2  505  502  0.87408716589E+02 -0.17574387084E+03 -0.31585240789E+04  0.31646169672E+04  0.00000000000E+00 0.  1.
         21    1    1    2  506  503 -0.38451100600E+02  0.22290662326E+02 -0.23651758303E+02  0.50346463978E+02  0.00000000000E+00 0.  1.
<scales pt_clust_3="33.07491" pt_clust_4="196.02707" pt_clust_5="14000.00000" pt_clust_6="86.48971"></scales>
<clustering>
<clus scale="   33.075">  3  6 -1 -1</clus>
<clus scale="   86.490">  1  3  2 -1</clus>
<clus scale="  196.027">  1  4  2 -1</clus>
<clus scale="   86.490">  1  3  2 -1</clus>
</clustering>
</event>
<event>
 6    0  0.1555973E+002  0.1218854E+03  0.7546771E-02  0.1240019E+00
         21   -1    0    0  503  501  0.00000000000E+00  0.00000000000E+00  0.46730735635E+02  0.46730735635E+02  0.00000000000E+00 0. -1.
         21   -1    0    0  506  502 -0.00000000000E+00 -0.00000000000E+00 -0.12342815452E+04  0.12342815452E+04  0.00000000000E+00 0. -1.
         21    1    1    2  503  502  0.81440861707E+02 -0.83025976309E+02 -0.20454954126E+03  0.23530074697E+03  0.00000000000E+00 0. -1.
         21    1    1    2  504  505 -0.52371009662E+02  0.15871430073E+02 -0.56996642512E+02  0.79014189885E+02  0.00000000000E+00 0. -1.
         21    1    1    2  505  501 -0.49900524313E+02  0.43583068560E+02 -0.34611971710E+02  0.74749814565E+02  0.00000000000E+00 0. -1.
         21    1    1    2  506  504  0.20830672268E+02  0.23571477677E+02 -0.89139265409E+03  0.89194752942E+03  0.00000000000E+00 0. -1.
<scales pt_clust_3="116.61529" pt_clust_4="31.50065" pt_clust_5="31.50065" pt_clust_6="31.45682"></scales>
<clustering>
<clus scale="   31.457">  2  6  1 -1</clus>
<clus scale="   31.501">  4  5 -1 -1</clus>
<clus scale="  116.615">  2  3  1 -1</clus>
<clus scale="  121.885">  1  3  2 -1</clus>
</clustering>
</event>
<event>
 6    0  0.1555973E+002  0.1607988E+03  0.7546771E-02  0.1187798E+00
         21   -1    0    0  506  501  0.00000000000E+00  0.00000000000E+00  0.10644543125E+04  0.10644543125E+04  0.00000000000E+00 0. -1.
         21   -1    0    0  503  502 -0.00000000000E+00 -0.00000000000E+00 -0.88319289687E+02  0.88319289687E+02  0.00000000000E+00 0. -1.
         21    1    1    2  503  501  0.17017422500E+02 -0.59938379392E+02  0.15739063802E+03  0.16927496840E+03  0.00000000000E+00 0. -1.
         21    1    1    2  504  502  0.10788362587E+03 -0.88873157743E+02  0.85625965002E+00  0.13977856802E+03  0.00000000000E+00 0. -1.
         21    1    1    2  505  504 -0.35833609735E+02  0.11390059488E+02  0.88176428821E+02  0.95858560606E+02  0.00000000000E+00 0. -1.
         21    1    1    2  506  505 -0.89067438630E+02  0.13742147765E+03  0.72971169629E+03  0.74786150512E+03  0.00000000000E+00 0. -1.
<scales pt_clust_3="62.30732" pt_clust_4="143.80135" pt_clust_5="34.47839" pt_clust_6="34.47839"></scales>
<clustering>
<clus scale="   34.478">  5  6 -1 -1</clus>
<clus scale="   62.307">  1  3  2 -1</clus>
<clus scale="  143.801">  2  4  1 -1</clus>
<clus scale="   62.307">  1  3  2 -1</clus>
</clustering>
</event>
<event>
 6    0  0.1555973E+002  0.1216190E+03  0.7546771E-02  0.1240450E+00
         21   -1    0    0  504  501  0.00000000000E+00  0.00000000000E+00  0.49687201668E+03  0.49687201668E+03  0.00000000000E+00 0. -1.
         21   -1    0    0  503  502 -0.00000000000E+00 -0.00000000000E+00 -0.86157023385E+02  0.86157023385E+02  0.00000000000E+00 0. -1.
         21    1    1    2  503  505 -0.53228836215E+02 -0.24660517140E+02  0.78792601579E+02  0.98233009595E+02  0.00000000000E+00 0. -1.
         21    1    1    2  504  506  0.40630655131E+02 -0.39968156219E+02  0.13340736015E+03  0.14507180081E+03  0.00000000000E+00 0. -1.
         21    1    1    2  505  501 -0.63196793067E+02 -0.12702557058E+02  0.22007110959E+03  0.22931742822E+03  0.00000000000E+00 0. -1.
         21    1    1    2  506  502  0.75794974150E+02  0.77331230417E+02 -0.21556078024E+02  0.11040680144E+03  0.00000000000E+00 0. -1.
<scales pt_clust_3="52.41530" pt_clust_4="56.99389" pt_clust_5="52.41530" pt_clust_6="108.50042"></scales>
<clustering>
<clus scale="   52.415">  3  5 -1 -1</clus>
<clus scale="   56.994">  1  4  2 -1</clus>
<clus scale="  108.500">  2  6  1 -1</clus>
<clus scale="   56.994">  1  3  2 -1</clus>
</clustering>
</event>
<event>
 6    0  0.1555973E+002  0.9142674E+02  0.7546771E-02  0.1299433E+00
         21   -1    0    0  506  501  0.00000000000E+00  0.00000000000E+00  0.45619904452E+03  0.45619904452E+03  0.00000000000E+00 0.  1.
         21   -1    0    0  504  502 -0.00000000000E+00 -0.00000000000E+00 -0.80313951241E+02  0.80313951241E+02  0.00000000000E+00 0.  1.
         21    1    1    2  503  505  0.60891533295E+02 -0.46265688418E+02  0.54146036339E+02  0.93702113119E+02  0.00000000000E+00 0.  1.
         21    1    1    2  504  503 -0.20914906698E+02 -0.31402875084E+02 -0.38139990842E+02  0.53649163900E+02  0.00000000000E+00 0.  1.
         21    1    1    2  505  501 -0.76435367768E+02  0.59777601095E+02  0.31004719507E+03  0.32487688470E+03  0.00000000000E+00 0.  1.
         21    1    1    2  506  502  0.36458741171E+02  0.17890962408E+02  0.49831852715E+02  0.64284834048E+02  0.00000000000E+00 0.  1.
<scales pt_clust_3="91.42674" pt_clust_4="37.73028" pt_clust_5="14000.00000" pt_clust_6="33.99955"></scales>
<clustering>
<clus scale="   37.730">  2  4  1 -1</clus>
<clus scale="   34.000">  2  6  1 -1</clus>
<clus scale="   91.427">  2  3  1 -1</clus>
<clus scale="   91.427">  1  3  2 -1</clus>
</clustering>
</event>
<event>
 6    0  0.1555973E+002  0.1577487E+03  0.7546771E-02  0.1191262E+00
         21   -1    0    0  503  501  0.00000000000E+00  0.00000000000E+00  0.30337072155E+03  0.30337072155E+03  0.00000000000E+00 0. -1.
         21   -1    0    0  505  502 -0.00000000000E+00 -0.00000000000E+00 -0.61364075546E+03  0.61364075546E+03  0.00000000000E+00 0. -1.
         21    1    1    2  503  504 -0.45460092708E+02  0.22350753125E+02  0.75367307608E+02  0.90809731034E+02  0.00000000000E+00 0. -1.
         21    1    1    2  504  502 -0.41811647690E+02  0.66734901590E+02  0.50127473588E+02  0.93351617988E+02  0.00000000000E+00 0.  1.
         21    1    1    2  505  506  0.13229124194E+03 -0.73029153052E+02 -0.57035063463E+03  0.59002887753E+03  0.00000000000E+00 0. -1.
         21    1    1    2  506  501 -0.45019501543E+02 -0.16056501662E+02  0.13458581953E+03  0.14282125046E+03  0.00000000000E+00 0.  1.
<scales pt_clust_3="41.00467" pt_clust_4="41.00467" pt_clust_5="149.23402" pt_clust_6="47.79714"></scales>
<clustering>
<clus scale="   41.005">  3  4 -1 -1</clus>
<clus scale="   47.797">  1  6  2 -1</clus>
<clus scale="  149.234">  2  5  1 -1</clus>
<clus scale="   47.797">  1  3  2 -1</clus>
</clustering>
</event>
<event>
 6    0  0.1555973E+002  0.3628983E+03  0.7546771E-02  0.1057442E+00
         21   -1    0    0  505  501  0.00000000000E+00  0.00000000000E+00  0.35816932177E+03  0.35816932177E+03  0.00000000000E+00 0. -1.
         21   -1    0    0  504  502 -0.00000000000E+00 -0.00000000000E+00 -0.82028204073E+03  0.82028204073E+03  0.00000000000E+00 0. -1.
         21    1    1    2  503  506  0.17011663859E+02 -0.45476059448E+02  0.59462412777E+01  0.48916525587E+02  0.00000000000E+00 0.  1.
         21    1    1    2  504  503  0.29230986533E+03 -0.27386504667E+03 -0.21553646317E+03  0.45486601116E+03  0.00000000000E+00 0. -1.
         21    1    1    2  505  502 -0.19881008426E+02  0.19247348366E+03 -0.29808067313E+03  0.35537780474E+03  0.00000000000E+00 0. -1.
         21    1    1    2  506  501 -0.28944052076E+03  0.12686762246E+03  0.45558176064E+02  0.31929102100E+03  0.00000000000E+00 0. -1.
<scales pt_clust_3="38.47162" pt_clust_4="38.47162" pt_clust_5="193.49754" pt_clust_6="345.66591"></scales>
<clustering>
<clus scale="   38.472">  3  4 -1 -1</clus>
<clus scale="  193.498">  2  5  1 -1</clus>
<clus scale="  345.666">  1  6  2 -1</clus>
<clus scale="  345.666">  1  3  2 -1</clus>
</clustering>
</event>
<event>
 6    0  0.1555973E+002  0.1497302E+03  0.7546771E-02  0.1200805E+00
         21   -1    0    0  506  501  0.00000000000E+00  0.00000000000E+00  0.63137014194E+03  0.63137014194E+03  0.00000000000E+00 0. -1.
         21   -1    0    0  504  502 -0.00000000000E+00 -0.00000000000E+00 -0.22600128179E+03  0.22600128179E+03  0.00000000000E+00 0. -1.
         21    1    1    2  503  502 -0.39893114099E+02  0.17224447135E+02 -0.16321801426E+03  0.16890311516E+03  0.00000000000E+00 0. -1.
         21    1    1    2  504  501 -0.30270055396E+02  0.11172420950E+03  0.18975509460E+02  0.11729725147E+03  0.00000000000E+00 0. -1.
         21    1    1    2  505  503  0.15706089888E+02 -0.36552371013E+02  0.24548259324E+03  0.24868546534E+03  0.00000000000E+00 0. -1.
         21    1    1    2  506  505  0.54457079607E+02 -0.92396285627E+02  0.30412877171E+03  0.32248559177E+03  0.00000000000E+00 0. -1.
<scales pt_clust_3="43.45276" pt_clust_4="140.73396" pt_clust_5="31.13379" pt_clust_6="31.13379"></scales>
<clustering>
<clus scale="   31.134">  5  6 -1 -1</clus>
<clus scale="   43.453">  2  3  1 -1</clus>
<clus scale="  140.734">  2  4  1 -1</clus>
<clus scale="  149.730">  1  3  2 -1</clus>
</clustering>
</event>
<event>
 6    0  0.1555973E+002  0.9606293E+02  0.7546771E-02  0.1288800E+00
         21   -1    0    0  502  501  0.00000000000E+00  0.00000000000E+00  0.12484039248E+03  0.12484039248E+03  0.00000000000E+00 0. -1.
         21   -1    0    0  504  502 -0.00000000000E+00 -0.00000000000E+00 -0.69117768590E+03  0.69117768590E+03  0.00000000000E+00 0.  1.
         21    1    1    2  503  505  0.27153743313E+02  0.96054841008E+02  0.26928528538E+01  0.99855444085E+02  0.00000000000E+00 0. -1.
         21    1    1    2  504  506 -0.60121041824E+02 -0.58963915302E+02 -0.57349286288E+03  0.57964243009E+03  0.00000000000E+00 0.  1.
         21    1    1    2  505  501 -0.99720150092E+00 -0.77077691517E+02  0.23691721351E+02  0.80642808737E+02  0.00000000000E+00 0. -1.
         21    1    1    2  506  503  0.33964500012E+02  0.39986765811E+02 -0.19229004740E+02  0.55877395469E+02  0.00000000000E+00 0. -1.
<scales pt_clust_3="30.21101" pt_clust_4="86.55387" pt_clust_5="77.08414" pt_clust_6="30.21101"></scales>
<clustering>
<clus scale="   30.211">  3  6 -1 -1</clus>
<clus scale="   77.084">  1  5  2 -1</clus>
<clus scale="   86.554">  2  4  1 -1</clus>
<clus scale="   77.084">  1  3  2 -1</clus>
</clustering>
</event>
<event>
 6    0  0.1555973E+002  0.3167207E+03  0.7546771E-02  0.1077169E+00
         21   -1    0    0  504  501  0.00000000000E+00  0.00000000000E+00  0.76988482016E+03  0.76988482016E+03  0.00000000000E+00 0. -1.
         21   -1    0    0  505  502 -0.00000000000E+00 -0.00000000000E+00 -0.11662783906E+04  0.11662783906E+04  0.00000000000E+00 0. -1.
         21    1    1    2  503  506  0.37408629593E+03 -0.34413816289E+02  0.61947568869E+03  0.72448257152E+03  0.00000000000E+00 0. -1.
         21    1    1    2  504  503 -0.62694668863E+02 -0.28961600664E+02  0.39161637589E+02  0.79391622200E+02  0.00000000000E+00 0.  1.
         21    1    1    2  505  501 -0.23135430798E+03  0.85518044021E+02 -0.10061178213E+04  0.10359108176E+04  0.00000000000E+00 0. -1.
         21    1    1    2  506  502 -0.80037319089E+02 -0.22142627068E+02 -0.48913075427E+02  0.96378199444E+02  0.00000000000E+00 0.  1.
<scales pt_clust_3="14000.00000" pt_clust_4="69.06081" pt_clust_5="316.72067" pt_clust_6="85.32054"></scales>
<clustering>
<clus scale="   69.061">  1  4  2 -1</clus>
<clus scale="   85.321">  2  6  1 -1</clus>
<clus scale="  316.721">  2  5  1 -1</clus>
<clus scale="   69.061">  1  3  2 -1</clus>
</clustering>
</event>
<event>
 6    0  0.1555973E+002  0.2668621E+03  0.7546771E-02  0.1103089E+00
         21   -1    0    0  503  501  0.00000000000E+00  0.00000000000E+00  0.15238711845E+04  0.15238711845E+04  0.00000000000E+00 0. -1.
         21   -1    0    0  505  502 -0.00000000000E+00 -0.00000000000E+00 -0.92429394125E+02  0.92429394125E+02  0.00000000000E+00 0. -1.
         21    1    1    2  503  506 -0.12871358968E+03  0.19408540440E+00  0.32022302343E+03  0.34512318173E+03  0.00000000000E+00 0. -1.
         21    1    1    2  504  501  0.23405861874E+03  0.49947626759E+02  0.63726965991E+03  0.68072815563E+03  0.00000000000E+00 0. -1.
         21    1    1    2  505  504  0.60861334712E+02 -0.20894224623E+02 -0.20866499152E+02  0.67646740293E+02  0.00000000000E+00 0. -1.
         21    1    1    2  506  502 -0.16620636378E+03 -0.29247487540E+02  0.49481560616E+03  0.52280250093E+03  0.00000000000E+00 0. -1.
<scales pt_clust_3="30.06513" pt_clust_4="264.63230" pt_clust_5="64.34804" pt_clust_6="30.06513"></scales>
<clustering>
<clus scale="   30.065">  3  6 -1 -1</clus>
<clus scale="   64.348">  2  5  1 -1</clus>
<clus scale="  264.632">  1  4  2 -1</clus>
<clus scale="  264.632">  1  3  2 -1</clus>
</clustering>
</event>
<event>
 6    0  0.1555973E+002  0.7483556E+02  0.7546771E-02  0.1344381E+00
         21   -1    0    0  504  501  0.00000000000E+00  0.00000000000E+00  0.25958220317E+02  0.25958220317E+02  0.00000000000E+00 0.  1.
         21   -1    0    0  505  502 -0.00000000000E+00 -0.00000000000E+00 -0.23956667240E+04  0.23956667240E+04  0.00000000000E+00 0.  1.
         21    1    1    2  503  502  0.33874995583E+02  0.48080357319E+02 -0.16921901184E+03  0.17914884888E+03  0.00000000000E+00 0.  1.
         21    1    1    2  504  503 -0.34076152710E+02  0.57716515469E+02 -0.95960157162E+02  0.11705012646E+03  0.00000000000E+00 0.  1.
         21    1    1    2  505  506 -0.35862209756E+02 -0.23735227449E+02 -0.19179485304E+04  0.19184306149E+04  0.00000000000E+00 0.  1.
         21    1    1    2  506  501  0.36063366883E+02 -0.82061645339E+02 -0.18658080431E+03  0.20699535407E+03  0.00000000000E+00 0.  1.
<scales pt_clust_3="44.56903" pt_clust_4="74.83556" pt_clust_5="43.00534" pt_clust_6="14000.00000"></scales>
<clustering>
<clus scale="   43.005">  2  5  1 -1</clus>
<clus scale="   44.569">  2  3  1 -1</clus>
<clus scale="   74.836">  1  4  2 -1</clus>
<clus scale="   74.836">  1  3  2 -1</clus>
</clustering>
</event>
<event>
 6    0  0.1555973E+002  0.1069505E+03  0.7546771E-02  0.1266324E+00
         21   -1    0    0  503  501  0.00000000000E+00  0.00000000000E+00  0.58393030964E+03  0.58393030964E+03  0.00000000000E+00 0.  1.
         21   -1    0    0  505  502 -0.00000000000E+00 -0.00000000000E+00 -0.81238768535E+02  0.81238768535E+02  0.00000000000E+00 0.  1.
         21    1    1    2  503  506  0.26111663553E+02  0.65894963513E+02  0.99199643295E+02  0.12192019693E+03  0.00000000000E+00 0. -1.
         21    1    1    2  504  501 -0.25534167230E+02 -0.99582780702E+02  0.27398312827E+03  0.29263540197E+03  0.00000000000E+00 0.  1.
         21    1    1    2  505  504 -0.46278352399E+02 -0.44813749675E+02  0.14481538034E+03  0.15849748403E+03  0.00000000000E+00 0.  1.
         21    1    1    2  506  502  0.45700856076E+02  0.78501566864E+02 -0.15306610798E+02  0.92115995247E+02  0.00000000000E+00 0.  1.
<scales pt_clust_3="70.87994" pt_clust_4="36.45908" pt_clust_5="36.45908" pt_clust_6="96.52520"></scales>
<clustering>
<clus scale="   36.459">  4  5 -1 -1</clus>
<clus scale="   70.880">  1  3  2 -1</clus>
<clus scale="   96.525">  2  6  1 -1</clus>
<clus scale="   70.880">  1  3  2 -1</clus>
</clustering>
</event>
<event>
 6    0  0.1555973E+002  0.1325857E+03  0.7546771E-02  0.1223669E+00
         21   -1    0    0  503  501  0.00000000000E+00  0.00000000000E+00  0.65365898345E+03  0.65365898345E+03  0.00000000000E+00 0. -1.
         21   -1    0    0  506  502 -0.00000000000E+00 -0.00000000000E+00 -0.17237592153E+03  0.17237592153E+03  0.00000000000E+00 0.  1.
         21    1    1    2  503  502 -0.72063554240E+02 -0.97593220983E+02 -0.12588815287E+03  0.17482968760E+03  0.00000000000E+00 0.  1.
         21    1    1    2  504  501  0.82830030631E+02 -0.14870303319E+02  0.39066302725E+03  0.39962424946E+03  0.00000000000E+00 0. -1.
         21    1    1    2  505  504 -0.30500759963E+02  0.53894648815E+02  0.14103065233E+03  0.15402783653E+03  0.00000000000E+00 0.  1.
         21    1    1    2  506  505  0.19734283572E+02  0.58568875487E+02  0.75477535215E+02  0.97553131401E+02  0.00000000000E+00 0.  1.
<scales pt_clust_3="118.00742" pt_clust_4="84.15426" pt_clust_5="60.38205" pt_clust_6="60.38205"></scales>
<clustering>
<clus scale="   60.382">  5  6 -1 -1</clus>
<clus scale="   84.154">  1  4  2 -1</clus>
<clus scale="  118.007">  2  3  1 -1</clus>
<clus scale="   84.154">  1  3  2 -1</clus>
</clustering>
</event>
<event>
 6    0  0.1555973E+002  0.2629875E+03  0.7546771E-02  0.1105361E+00
         21   -1    0    0  505  501  0.00000000000E+00  0.00000000000E+00  0.18371429187E+04  0.18371429187E+04  0.00000000000E+00 0.  1.
         21   -1    0    0  506  502 -0.00000000000E+00 -0.00000000000E+00 -0.33718105853E+03  0.33718105853E+03  0.00000000000E+00 0.  1.
         21    1    1    2  503  501  0.79685122702E+02 -0.51726222878E+01  0.10648844758E+03  0.13310245779E+03  0.00000000000E+00 0. -1.
         21    1    1    2  504  502 -0.28099443645E+03 -0.22158410870E+02  0.11775556682E+04  0.12108204740E+04  0.00000000000E+00 0.  1.
         21    1    1    2  505  504 -0.55859012579E+02  0.80430531334E+02  0.46095250085E+03  0.47123933165E+03  0.00000000000E+00 0.  1.
         21    1    1    2  506  503  0.25716832633E+03 -0.53099498176E+02 -0.24503475648E+03  0.35916171380E+03  0.00000000000E+00 0.  1.
<scales pt_clust_3="79.85283" pt_clust_4="262.98755" pt_clust_5="86.12230" pt_clust_6="14000.00000"></scales>
<clustering>
<clus scale="   79.853">  1  3  2 -1</clus>
<clus scale="   86.122">  1  5  2 -1</clus>
<clus scale="  262.988">  1  4  2 -1</clus>
<clus scale="   79.853">  1  3  2 -1</clus>
</clustering>
</event>
<event>
 6    0  0.1555973E+002  0.1056871E+03  0.7546771E-02  0.1268772E+00
         21   -1    0    0  504  501  0.00000000000E+00  0.00000000000E+00  0.18980572418E+03  0.18980572418E+03  0.00000000000E+00 0.  1.
         21   -1    0    0  505  502 -0.00000000000E+00 -0.00000000000E+00 -0.22724689057E+03  0.22724689057E+03  0.00000000000E+00 0.  1.
         21    1    1    2  503  501  0.13304623310E+02  0.34910967849E+02  0.18464162389E+02  0.41673900349E+02  0.00000000000E+00 0.  1.
         21    1    1    2  504  506 -0.11561215396E+03 -0.22730593856E+01  0.73788656601E+02  0.13717180025E+03  0.00000000000E+00 0.  1.
         21    1    1    2  505  503  0.99609485252E+02  0.21904787824E+02 -0.50379755196E+01  0.10211390933E+03  0.00000000000E+00 0.  1.
         21    1    1    2  506  502  0.26980453967E+01 -0.54542696287E+02 -0.12465600986E+03  0.13609300482E+03  0.00000000000E+00 0.  1.
<scales pt_clust_3="37.36026" pt_clust_4="14000.00000" pt_clust_5="105.68709" pt_clust_6="53.38736"></scales>
<clustering>
<clus scale="   37.360">  1  3  2 -1</clus>
<clus scale="   53.387">  2  6  1 -1</clus>
<clus scale="  105.687">  2  5  1 -1</clus>
<clus scale="   37.360">  1  3  2 -1</clus>
</clustering>
</event>
<event>
 6    0  0.1555973E+002  0.8534052E+02  0.7546771E-02  0.1314544E+00
         21   -1    0    0  504  501  0.00000000000E+00  0.00000000000E+00  0.62955310646E+02  0.62955310646E+02  0.00000000000E+00 0.  1.
         21   -1    0    0  503  502 -0.00000000000E+00 -0.00000000000E+00 -0.20756498488E+04  0.20756498488E+04  0.00000000000E+00 0. -1.
         21    1    1    2  503  501 -0.17545294713E+02 -0.67699941855E+02 -0.80871336845E+02  0.10691722320E+03  0.00000000000E+00 0.  1.
         21    1    1    2  504  505 -0.45998885184E+02  0.61322987930E+02  0.26163865198E+01  0.76702358276E+02  0.00000000000E+00 0.  1.
         21    1    1    2  505  506 -0.29511635051E+01  0.35261494344E+02 -0.23068882095E+02  0.42240450643E+02  0.00000000000E+00 0.  1.
         21    1    1    2  506  502  0.66495343402E+02 -0.28884540418E+02 -0.19113707057E+04  0.19127451273E+04  0.00000000000E+00 0. -1.
<scales pt_clust_3="69.93654" pt_clust_4="30.41756" pt_clust_5="30.41756" pt_clust_6="72.65388"></scales>
<clustering>
<clus scale="   30.418">  4  5 -1 -1</clus>
<clus scale="   69.937">  1  3  2 -1</clus>
<clus scale="   72.654">  2  6  1 -1</clus>
<clus scale="   69.937">  1  3  2 -1</clus>
</clustering>
</event>
<event>
 6    0  0.1555973E+002  0.7435199E+02  0.7546771E-02  0.1345890E+00
         21   -1    0    0  505  501  0.00000000000E+00  0.00000000000E+00  0.18777974745E+03  0.18777974745E+03  0.00000000000E+00 0. -1.
         21   -1    0    0  504  502 -0.00000000000E+00 -0.00000000000E+00 -0.12916254730E+04  0.12916254730E+04  0.00000000000E+00 0. -1.
         21    1    1    2  503  506  0.90246014452E+02 -0.18368278101E+02  0.24785916707E+02  0.95373363324E+02  0.00000000000E+00 0. -1.
         21    1    1    2  504  501 -0.12658784687E+02 -0.30098098247E+02  0.24395961369E+02  0.40759088299E+02  0.00000000000E+00 0.  1.
         21    1    1    2  505  503 -0.36137440594E+02  0.73149710098E+02  0.77067058448E+02  0.11223246499E+03  0.00000000000E+00 0. -1.
         21    1    1    2  506  502 -0.41449789171E+02 -0.24683333751E+02 -0.12300946621E+04  0.12310403038E+04  0.00000000000E+00 0. -1.
<scales pt_clust_3="14000.00000" pt_clust_4="32.65180" pt_clust_5="74.35199" pt_clust_6="48.32272"></scales>
<clustering>
<clus scale="   32.652">  1  4  2 -1</clus>
<clus scale="   48.323">  2  6  1 -1</clus>
<clus scale="   74.352">  1  5  2 -1</clus>
<clus scale="   32.652">  1  3  2 -1</clus>
</clustering>
</event>
<event>
 6    0  0.1555973E+002  0.1122404E+03  0.7546771E-02  0.1256476E+00
         21   -1    0    0  504  501  0.00000000000E+00  0.00000000000E+00  0.13815516952E+04  0.13815516952E+04  0.00000000000E+00 0. -1.
         21   -1    0    0  505  502 -0.00000000000E+00 -0.00000000000E+00 -0.47746532620E+03  0.47746532620E+03  0.00000000000E+00 0. -1.
         21    1    1    2  503  501  0.33266609243E+01 -0.43188554104E+02  0.37491067564E+03  0.37740473313E+03  0.00000000000E+00 0. -1.
         21    1    1    2  504  502  0.10937745646E+03  0.16711866678E+02  0.29508660725E+03  0.31514888584E+03  0.00000000000E+00 0. -1.
         21    1    1    2  505  506 -0.23850895441E+01  0.37062079914E+02 -0.46105096452E+03  0.46254435280E+03  0.00000000000E+00 0. -1.
         21    1    1    2  506  503 -0.11031902784E+03 -0.10585392488E+02  0.69514005065E+03  0.70391904965E+03  0.00000000000E+00 0. -1.
<scales pt_clust_3="40.36077" pt_clust_4="112.24042" pt_clust_5="37.13875" pt_clust_6="14000.00000"></scales>
<clustering>
<clus scale="   37.139">  2  5  1 -1</clus>
<clus scale="   40.361">  1  3  2 -1</clus>
<clus scale="  112.240">  2  4  1 -1</clus>
<clus scale="   40.361">  1  3  2 -1</clus>
</clustering>
</event>
<event>
 6    0  0.1555973E+002  0.1140341E+03  0.7546771E-02  0.1253277E+00
         21   -1    0    0  503  501  0.00000000000E+00  0.00000000000E+00  0.29218942320E+02  0.29218942320E+02  0.00000000000E+00 0.  1.
         21   -1    0    0  505  502 -0.00000000000E+00 -0.00000000000E+00 -0.16273203241E+04  0.16273203241E+04  0.00000000000E+00 0. -1.
         21    1    1    2  503  504  0.93757504210E+01  0.56899283462E+02 -0.12477015959E+03  0.13745190388E+03  0.00000000000E+00 0.  1.
         21    1    1    2  504  506  0.25782048717E+02  0.75900408269E+02 -0.94739136810E+02  0.12410112834E+03  0.00000000000E+00 0.  1.
         21    1    1    2  505  501  0.77607749328E+01 -0.36777197724E+02 -0.51631847478E+02  0.63864227655E+02  0.00000000000E+00 0.  1.
         21    1    1    2  506  502 -0.42918574071E+02 -0.96022494007E+02 -0.13269602379E+04  0.13311220066E+04  0.00000000000E+00 0. -1.
<scales pt_clust_3="31.20798" pt_clust_4="31.20798" pt_clust_5="37.58712" pt_clust_6="107.93490"></scales>
<clustering>
<clus scale="   31.208">  3  4 -1 -1</clus>
<clus scale="   37.587">  1  5  2 -1</clus>
<clus scale="  107.935">  2  6  1 -1</clus>
<clus scale="   37.587">  1  3  2 -1</clus>
</clustering>
</event>
<event>
 6    0  0.1555973E+002  0.1701530E+03  0.7546771E-02  0.1177688E+00
         21   -1    0    0  505  501  0.00000000000E+00  0.00000000000E+00  0.11782461584E+03  0.11782461584E+03  0.00000000000E+00 0.  1.
         21   -1    0    0  503  502 -0.00000000000E+00 -0.00000000000E+00 -0.83312257110E+03  0.83312257110E+03  0.00000000000E+00 0. -1.
         21    1    1    2  503  504 -0.12922790287E+02  0.66701401558E+02  0.52982366021E+02  0.86158032636E+02  0.00000000000E+00 0.  1.
         21    1    1    2  504  506 -0.28406146359E+01  0.48025578724E+02 -0.69803711118E+01  0.48613278887E+02  0.00000000000E+00 0.  1.
         21    1    1    2  505  502  0.10245934500E+03 -0.13484296045E+03 -0.65977861483E+03  0.68116691196E+03  0.00000000000E+00 0. -1.
         21    1    1    2  506  501 -0.86695940073E+02  0.20115980167E+02 -0.10152133535E+03  0.13500896346E+03  0.00000000000E+00 0. -1.
<scales pt_clust_3="43.20654" pt_clust_4="43.20654" pt_clust_5="162.22108" pt_clust_6="88.99909"></scales>
<clustering>
<clus scale="   43.207">  3  4 -1 -1</clus>
<clus scale="   88.999">  1  6  2 -1</clus>
<clus scale="  162.221">  2  5  1 -1</clus>
<clus scale="   88.999">  1  3  2 -1</clus>
</clustering>
</event>
<event>
 6    0  0.1555973E+002  0.7500813E+02  0.7546771E-02  0.1343846E+00
         21   -1    0    0  503  501  0.00000000000E+00  0.00000000000E+00  0.30190064559E+02  0.30190064559E+02  0.00000000000E+00 0. -1.
         21   -1    0    0  504  502 -0.00000000000E+00 -0.00000000000E+00 -0.17270608531E+04  0.17270608531E+04  0.00000000000E+00 0.  1.
         21    1    1    2  503  505 -0.65812137921E+02 -0.27242414655E+02 -0.19594056842E+03  0.20848523451E+03  0.00000000000E+00 0.  1.
         21    1    1    2  504  506 -0.67384840393E+02 -0.27895432291E+02 -0.12204508683E+04  0.12226279866E+04  0.00000000000E+00 0.  1.
         21    1    1    2  505  502  0.96615269718E+02  0.63526207253E+02 -0.14446989694E+03  0.18504496878E+03  0.00000000000E+00 0. -1.
         21    1    1    2  506  501  0.36581708596E+02 -0.83883603071E+01 -0.13600945489E+03  0.14109272771E+03  0.00000000000E+00 0.  1.
<scales pt_clust_3="64.47653" pt_clust_4="14000.00000" pt_clust_5="75.00813" pt_clust_6="37.53113"></scales>
<clustering>
<clus scale="   37.531">  1  6  2 -1</clus>
<clus scale="   64.477">  1  3  2 -1</clus>
<clus scale="   75.008">  1  5  2 -1</clus>
<clus scale="   37.531">  1  3  2 -1</clus>
</clustering>
</event>
<event>
 6    0  0.1555973E+002  0.2465536E+03  0.7546771E-02  0.1115502E+00
         21   -1    0    0  503  501  0.00000000000E+00  0.00000000000E+00  0.73420220857E+02  0.73420220857E+02  0.00000000000E+00 0. -1.
         21   -1    0    0  505  502 -0.00000000000E+00 -0.00000000000E+00 -0.17707355144E+04  0.17707355144E+04  0.00000000000E+00 0. -1.
         21    1    1    2  503  504 -0.43431340293E+02  0.15862352405E+03 -0.79899079011E+02  0.18284301061E+03  0.00000000000E+00 0. -1.
         21    1    1    2  504  502 -0.10715721571E+02  0.63070267223E+02 -0.71845506963E+02  0.96200115214E+02  0.00000000000E+00 0. -1.
         21    1    1    2  505  506  0.77243065487E+02 -0.12620286367E+03 -0.88792106425E+03  0.90016524611E+03  0.00000000000E+00 0. -1.
         21    1    1    2  506  501 -0.23096003623E+02 -0.95490927605E+02 -0.65764964333E+03  0.66494736333E+03  0.00000000000E+00 0.  1.
<scales pt_clust_3="234.17653" pt_clust_4="32.75777" pt_clust_5="76.04120" pt_clust_6="76.04120"></scales>
<clustering>
<clus scale="   32.758">  3  4 -1 -1</clus>
<clus scale="   76.041">  5  6 -1 -1</clus>
<clus scale="  234.177">  1  3  2 -1</clus>
<clus scale="  234.177">  1  3  2 -1</clus>
</clustering>
</event>
<event>
 6    0  0.1555973E+002  0.1068346E+03  0.7546771E-02  0.1266547E+00
         21   -1    0    0  503  501  0.00000000000E+00  0.00000000000E+00  0.82235850522E+03  0.82235850522E+03  0.00000000000E+00 0.  1.
         21   -1    0    0  504  502 -0.00000000000E+00 -0.00000000000E+00 -0.15246498481E+04  0.15246498481E+04  0.00000000000E+00 0.  1.
         21    1    1    2  503  506  0.10229801283E+03 -0.27635088807E+01  0.99868609081E+02  0.14299041748E+03  0.00000000000E+00 0.  1.
         21    1    1    2  504  505 -0.71487505897E+02  0.87958213634E+02  0.20954601927E+03  0.23823653170E+03  0.00000000000E+00 0.  1.
         21    1    1    2  505  501 -0.66548561538E+02 -0.88028868063E+02  0.47043607295E+03  0.48320584784E+03  0.00000000000E+00 0.  1.
         21    1    1    2  506  502  0.35738054602E+02  0.28341633093E+01 -0.14821420442E+04  0.14825755563E+04  0.00000000000E+00 0.  1.
<scales pt_clust_3="101.34084" pt_clust_4="14000.00000" pt_clust_5="106.83456" pt_clust_6="35.85026"></scales>
<clustering>
<clus scale="   35.850">  2  6  1 -1</clus>
<clus scale="  106.835">  1  5  2 -1</clus>
<clus scale="  101.341">  2  3  1 -1</clus>
<clus scale="  106.835">  1  3  2 -1</clus>
</clustering>
</event>
<event>
 6    0  0.1555973E+002  0.8577010E+02  0.7546771E-02  0.1313431E+00
         21   -1    0    0  506  501  0.00000000000E+00  0.00000000000E+00  0.92145039990E+03  0.92145039990E+03  0.00000000000E+00 0.  1.
         21   -1    0    0  503  502 -0.00000000000E+00 -0.00000000000E+00 -0.83794889767E+02  0.83794889767E+02  0.00000000000E+00 0.  1.
         21    1    1    2  503  501  0.29670267430E+02 -0.18051648904E+02  0.14456415798E+03  0.14867744472E+03  0.00000000000E+00 0. -1.
         21    1    1    2  504  502  0.26316499441E+01 -0.91551577612E+02 -0.44365331973E+02  0.10176885391E+03  0.00000000000E+00 0.  1.
         21    1    1    2  505  504  0.24927095199E+02  0.55154347404E+02  0.14537932366E+03  0.15747542621E+03  0.00000000000E+00 0. -1.
         21    1    1    2  506  505 -0.57229012573E+02  0.54448879112E+02  0.59207736047E+03  0.59732356482E+03  0.00000000000E+00 0.  1.
<scales pt_clust_3="34.73020" pt_clust_4="85.77010" pt_clust_5="14000.00000" pt_clust_6="53.24564"></scales>
<clustering>
<clus scale="   34.730">  1  3  2 -1</clus>
<clus scale="   53.246">  1  6  2 -1</clus>
<clus scale="   85.770">  2  4  1 -1</clus>
<clus scale="   34.730">  1  3  2 -1</clus>
</clustering>
</event>
<event>
 6    0  0.1555973E+002  0.8162543E+02  0.7546771E-02  0.1324501E+00
         21   -1    0    0  504  501  0.00000000000E+00  0.00000000000E+00  0.31957425221E+03  0.31957425221E+03  0.00000000000E+00 0.  1.
         21   -1    0    0  503  502 -0.00000000000E+00 -0.00000000000E+00 -0.49928473480E+03  0.49928473480E+03  0.00000000000E+00 0.  1.
         21    1    1    2  503  501  0.92082010856E+02  0.41173703797E+02  0.23099995533E+02  0.10347937186E+03  0.00000000000E+00 0. -1.
         21    1    1    2  504  505 -0.34714900817E+02 -0.45488056311E+02  0.17927370140E+03  0.18818434478E+03  0.00000000000E+00 0.  1.
         21    1    1    2  505  506 -0.69458841125E+02  0.39684065984E+02  0.49449452808E+02  0.94045755281E+02  0.00000000000E+00 0.  1.
         21    1    1    2  506  502  0.12091731086E+02 -0.35369713469E+02 -0.43153363232E+03  0.43314951509E+03  0.00000000000E+00 0.  1.
<scales pt_clust_3="14000.00000" pt_clust_4="58.64094" pt_clust_5="81.62543" pt_clust_6="37.37949"></scales>
<clustering>
<clus scale="   37.379">  2  6  1 -1</clus>
<clus scale="   58.641">  1  4  2 -1</clus>
<clus scale="   81.625">  2  5  1 -1</clus>
<clus scale="   58.641">  1  3  2 -1</clus>
</clustering>
</event>
<event>
 6    0  0.1555973E+002  0.1133849E+03  0.7546771E-02  0.1254427E+00
         21   -1    0    0  504  501  0.00000000000E+00  0.00000000000E+00  0.76465351528E+02  0.76465351528E+02  0.00000000000E+00 0.  1.
         21   -1    0    0  501  502 -0.00000000000E+00 -0.00000000000E+00 -0.13154659810E+04  0.13154659810E+04  0.00000000000E+00 0.  1.
         21    1    1    2  503  502 -0.18585862679E+02 -0.10529746089E+03 -0.12321495553E+04  0.12367803023E+04  0.00000000000E+00 0.  1.
         21    1    1    2  504  506  0.46079556761E+02  0.87425394425E+01  0.98441450871E+00  0.46911902744E+02  0.00000000000E+00 0.  1.
         21    1    1    2  505  503 -0.10323094755E+02  0.51183031523E+02  0.15416916126E+02  0.54442173947E+02  0.00000000000E+00 0.  1.
         21    1    1    2  506  505 -0.17170599327E+02  0.45371889922E+02 -0.23252404757E+02  0.53796953476E+02  0.00000000000E+00 0.  1.
<scales pt_clust_3="106.21006" pt_clust_4="46.90157" pt_clust_5="38.26050" pt_clust_6="38.26050"></scales>
<clustering>
<clus scale="   38.261">  5  6 -1 -1</clus>
<clus scale="   46.902">  1  4  2 -1</clus>
<clus scale="  106.210">  2  3  1 -1</clus>
<clus scale="   46.902">  1  3  2 -1</clus>
</clustering>
</event>
<event>
 6    0  0.1555973E+002  0.1248596E+03  0.7546771E-02  0.1235289E+00
         21   -1    0    0  505  501  0.00000000000E+00  0.00000000000E+00  0.30084706760E+03  0.30084706760E+03  0.00000000000E+00 0. -1.
         21   -1    0    0  506  502 -0.00000000000E+00 -0.00000000000E+00 -0.14339908302E+03  0.14339908302E+03  0.00000000000E+00 0. -1.
         21    1    1    2  503  504 -0.34705971861E+02  0.69689249009E+02  0.85361407392E+02  0.11553209849E+03  0.00000000000E+00 0.  1.
         21    1    1    2  504  502  0.10589891913E+03 -0.54438547973E+02 -0.71118988996E+02  0.13869407765E+03  0.00000000000E+00 0. -1.
         21    1    1    2  505  503 -0.31871035349E+02  0.34442883781E+02  0.10747156386E+03  0.11726982636E+03  0.00000000000E+00 0.  1.
         21    1    1    2  506  501 -0.39321911923E+02 -0.49693584816E+02  0.35734002321E+02  0.72750148117E+02  0.00000000000E+00 0. -1.
<scales pt_clust_3="32.34953" pt_clust_4="117.70195" pt_clust_5="32.34953" pt_clust_6="63.36928"></scales>
<clustering>
<clus scale="   32.350">  3  5 -1 -1</clus>
<clus scale="   63.369">  1  6  2 -1</clus>
<clus scale="  117.702">  2  4  1 -1</clus>
<clus scale="   63.369">  1  3  2 -1</clus>
</clustering>
</event>
<event>
 6    0  0.1555973E+002  0.9801119E+02  0.7546771E-02  0.1284535E+00
         21   -1    0    0  505  501  0.00000000000E+00  0.00000000000E+00  0.73439511622E+03  0.73439511622E+03  0.00000000000E+00 0.  1.
         21   -1    0    0  506  502 -0.00000000000E+00 -0.00000000000E+00 -0.82884107373E+02  0.82884107373E+02  0.00000000000E+00 0.  1.
         21    1    1    2  503  502 -0.25477579656E+02  0.54963799624E+02  0.50729191464E+02  0.79016309714E+02  0.00000000000E+00 0.  1.
         21    1    1    2  504  501  0.57247931336E+02  0.87423849489E+02  0.16769398219E+03  0.19758928808E+03  0.00000000000E+00 0.  1.
         21    1    1    2  505  503 -0.50741122544E+02 -0.54257680486E+01  0.39357462317E+03  0.39686910245E+03  0.00000000000E+00 0.  1.
         21    1    1    2  506  504  0.18970770864E+02 -0.13696188106E+03  0.39513212024E+02  0.14380452335E+03  0.00000000000E+00 0.  1.
<scales pt_clust_3="64.38819" pt_clust_4="98.01119" pt_clust_5="51.03039" pt_clust_6="14000.00000"></scales>
<clustering>
<clus scale="   51.030">  1  5  2 -1</clus>
<clus scale="   64.388">  2  3  1 -1</clus>
<clus scale="   98.011">  1  4  2 -1</clus>
<clus scale="   51.030">  1  3  2 -1</clus>
</clustering>
</event>
<event>
 6    0  0.1555973E+002  0.9992796E+02  0.7546771E-02  0.1280448E+00
         21   -1    0    0  506  501  0.00000000000E+00  0.00000000000E+00  0.63968756480E+03  0.63968756480E+03  0.00000000000E+00 0.  1.
         21   -1    0    0  503  502 -0.00000000000E+00 -0.00000000000E+00 -0.20319756053E+03  0.20319756053E+03  0.00000000000E+00 0. -1.
         21    1    1    2  503  504  0.59243602245E+01 -0.98671815966E+02  0.15110221413E+03  0.18056329756E+03  0.00000000000E+00 0.  1.
         21    1    1    2  504  501  0.43490400323E+02 -0.14313349371E+00  0.60570702436E+02  0.74567053053E+02  0.00000000000E+00 0.  1.
         21    1    1    2  505  502 -0.86905121489E+02  0.56061298244E+02 -0.16449939543E+03  0.19430754077E+03  0.00000000000E+00 0. -1.
         21    1    1    2  506  505  0.37490360941E+02  0.42753651215E+02  0.38931648314E+03  0.39344723395E+03  0.00000000000E+00 0.  1.
<scales pt_clust_3="14000.00000" pt_clust_4="43.49064" pt_clust_5="99.92796" pt_clust_6="79.63022"></scales>
<clustering>
<clus scale="   43.491">  1  4  2 -1</clus>
<clus scale="   79.630">  1  6  2 -1</clus>
<clus scale="   99.928">  2  5  1 -1</clus>
<clus scale="   43.491">  1  3  2 -1</clus>
</clustering>
</event>
<event>
 6    0  0.1555973E+002  0.1665032E+03  0.7546771E-02  0.1181544E+00
         21   -1    0    0  502  501  0.00000000000E+00  0.00000000000E+00  0.58036475293E+03  0.58036475293E+03  0.00000000000E+00 0.  1.
         21   -1    0    0  503  502 -0.00000000000E+00 -0.00000000000E+00 -0.68001716489E+02  0.68001716489E+02  0.00000000000E+00 0.  1.
         21    1    1    2  503  504  0.29925085215E+02  0.31048562228E+02 -0.74205505944E+01  0.43756011160E+02  0.00000000000E+00 0.  1.
         21    1    1    2  504  505  0.55397311041E+02  0.96352719621E+02  0.85071663425E+02  0.13996391166E+03  0.00000000000E+00 0.  1.
         21    1    1    2  505  506 -0.40355358974E+02 -0.97211552454E+02  0.23086009995E+03  0.25372234170E+03  0.00000000000E+00 0.  1.
         21    1    1    2  506  501 -0.44967037281E+02 -0.30189729395E+02  0.20385182366E+03  0.21092420490E+03  0.00000000000E+00 0.  1.
<scales pt_clust_3="40.42690" pt_clust_4="40.42690" pt_clust_5="164.07912" pt_clust_6="41.89493"></scales>
<clustering>
<clus scale="   40.427">  3  4 -1 -1</clus>
<clus scale="   41.895">  5  6 -1 -1</clus>
<clus scale="  164.079">  1  5  2 -1</clus>
<clus scale="  164.079">  1  3  2 -1</clus>
</clustering>
</event>
<event>
 6    0  0.1555973E+002  0.2154769E+03  0.7546771E-02  0.1137301E+00
         21   -1    0    0  504  501  0.00000000000E+00  0.00000000000E+00  0.36079361317E+03  0.36079361317E+03  0.00000000000E+00 0.  1.
         21   -1    0    0  503  502 -0.00000000000E+00 -0.00000000000E+00 -0.80966090397E+03  0.80966090397E+03  0.00000000000E+00 0.  1.
         21    1    1    2  503  506 -0.15717019512E+02  0.40520720393E+02  0.21148233997E+02  0.48334266154E+02  0.00000000000E+00 0.  1.
         21    1    1    2  504  505 -0.55295955874E+01 -0.24856538693E+03 -0.18328887655E+03  0.30888531897E+03  0.00000000000E+00 0.  1.
         21    1    1    2  505  502 -0.21781861137E+02  0.58209418623E+02 -0.52490708843E+03  0.52857377666E+03  0.00000000000E+00 0.  1.
         21    1    1    2  506  501  0.43028476236E+02  0.14983524791E+03  0.23818044018E+03  0.28466115536E+03  0.00000000000E+00 0.  1.
<scales pt_clust_3="43.06877" pt_clust_4="199.44178" pt_clust_5="62.15131" pt_clust_6="43.06877"></scales>
<clustering>
<clus scale="   43.069">  3  6 -1 -1</clus>
<clus scale="   62.151">  2  5  1 -1</clus>
<clus scale="  199.442">  2  4  1 -1</clus>
<clus scale="  215.477">  1  3  2 -1</clus>
</clustering>
</event>
<event>
 6    0  0.1555973E+002  0.1220471E+03  0.7546771E-02  0.1239758E+00
         21   -1    0    0  506  501  0.00000000000E+00  0.00000000000E+00  0.81102070023E+03  0.81102070023E+03  0.00000000000E+00 0.  1.
         21   -1    0    0  503  502 -0.00000000000E+00 -0.00000000000E+00 -0.26748328240E+03  0.26748328240E+03  0.00000000000E+00 0.  1.
         21    1    1    2  503  501 -0.36509404879E+02 -0.15877635803E+02  0.42654980278E+03  0.42840374673E+03  0.00000000000E+00 0.  1.
         21    1    1    2  504  502  0.10676956317E+03  0.77950043288E+02 -0.24021654449E+03  0.27418960067E+03  0.00000000000E+00 0.  1.
         21    1    1    2  505  504 -0.53859414456E+02 -0.19227269561E+02  0.10496264932E+03  0.11953109291E+03  0.00000000000E+00 0.  1.
         21    1    1    2  506  505 -0.16400743835E+02 -0.42845137923E+02  0.25224151022E+03  0.25637954232E+03  0.00000000000E+00 0. -1.
<scales pt_clust_3="39.81251" pt_clust_4="14000.00000" pt_clust_5="122.04712" pt_clust_6="67.06498"></scales>
<clustering>
<clus scale="   39.813">  1  3  2 -1</clus>
<clus scale="   67.065">  1  6  2 -1</clus>
<clus scale="  122.047">  1  5  2 -1</clus>
<clus scale="   39.813">  1  3  2 -1</clus>
</clustering>
</event>
<event>
 6    0  0.1555973E+002  0.9693915E+02  0.7546771E-02  0.1286867E+00
         21   -1    0    0  506  501  0.00000000000E+00  0.00000000000E+00  0.19724613667E+04  0.19724613667E+04  0.00000000000E+00 0.  1.
         21   -1    0    0  503  502 -0.00000000000E+00 -0.00000000000E+00 -0.63226804984E+03  0.63226804984E+03  0.00000000000E+00 0. -1.
         21    1    1    2  503  505 -0.32594941153E+02  0.91183214850E+02 -0.61590653857E+03  0.62347227133E+03  0.00000000000E+00 0. -1.
         21    1    1    2  504  502 -0.41788486605E+02 -0.13167183458E+03  0.46694439355E+03  0.48695052757E+03  0.00000000000E+00 0.  1.
         21    1    1    2  505  501  0.43368693805E+02  0.17740426052E+01  0.22329108270E+03  0.22747065403E+03  0.00000000000E+00 0.  1.
         21    1    1    2  506  504  0.31014733953E+02  0.38714577123E+02  0.12658643792E+04  0.12668359637E+04  0.00000000000E+00 0.  1.
<scales pt_clust_3="96.93915" pt_clust_4="14000.00000" pt_clust_5="43.40496" pt_clust_6="74.16226"></scales>
<clustering>
<clus scale="   43.405">  1  5  2 -1</clus>
<clus scale="   74.162">  1  6  2 -1</clus>
<clus scale="   96.939">  2  3  1 -1</clus>
<clus scale="   43.405">  1  3  2 -1</clus>
</clustering>
</event>
<event>
 6    0  0.1555973E+002  0.1102966E+03  0.7546771E-02  0.1260022E+00
         21   -1    0    0  506  501  0.00000000000E+00  0.00000000000E+00  0.65377304315E+03  0.65377304315E+03  0.00000000000E+00 0.  1.
         21   -1    0    0  503  502 -0.00000000000E+00 -0.00000000000E+00 -0.32825342386E+02  0.32825342386E+02  0.00000000000E+00 0. -1.
         21    1    1    2  503  504  0.24767003110E+02  0.33216445621E+02  0.20709177571E+02  0.46320694494E+02  0.00000000000E+00 0. -1.
         21    1    1    2  504  505  0.13562808086E+02  0.41438743225E+02  0.90047574414E+02  0.10004841259E+03  0.00000000000E+00 0. -1.
         21    1    1    2  505  501  0.41761646156E+02  0.20962588647E+02  0.21039858178E+03  0.21552500650E+03  0.00000000000E+00 0.  1.
         21    1    1    2  506  502 -0.80091457353E+02 -0.95617777492E+02  0.29979236700E+03  0.32470427195E+03  0.00000000000E+00 0. -1.
<scales pt_clust_3="41.43352" pt_clust_4="47.70874" pt_clust_5="47.70874" pt_clust_6="99.00182"></scales>
<clustering>
<clus scale="   41.434">  2  3  1 -1</clus>
<clus scale="   47.709">  4  5 -1 -1</clus>
<clus scale="   99.002">  2  6  1 -1</clus>
<clus scale="  110.297">  1  3  2 -1</clus>
</clustering>
</event>
<event>
 6    0  0.1555973E+002  0.9075122E+02  0.7546771E-02  0.1301043E+00
         21   -1    0    0  505  501  0.00000000000E+00  0.00000000000E+00  0.20540681703E+03  0.20540681703E+03  0.00000000000E+00 0.  1.
         21   -1    0    0  503  502 -0.00000000000E+00 -0.00000000000E+00 -0.40037530634E+03  0.40037530634E+03  0.00000000000E+00 0. -1.
         21    1    1    2  503  506 -0.42128906516E+02 -0.23365939241E+02 -0.14999924596E+02  0.50456016675E+02  0.00000000000E+00 0.  1.
         21    1    1    2  504  502 -0.55567634135E+02  0.72545571995E+02 -0.33165578650E+03  0.34401480011E+03  0.00000000000E+00 0. -1.
         21    1    1    2  505  504  0.95613461654E+02 -0.18648438477E+02  0.15219903297E+03  0.18070485313E+03  0.00000000000E+00 0.  1.
         21    1    1    2  506  501  0.20830789966E+01 -0.30531194277E+02 -0.51181118946E+00  0.30606453450E+02  0.00000000000E+00 0.  1.
<scales pt_clust_3="49.45163" pt_clust_4="90.75122" pt_clust_5="14000.00000" pt_clust_6="30.60217"></scales>
<clustering>
<clus scale="   30.602">  1  6  2 -1</clus>
<clus scale="   49.452">  1  3  2 -1</clus>
<clus scale="   90.751">  2  4  1 -1</clus>
<clus scale="   30.602">  1  3  2 -1</clus>
</clustering>
</event>
<event>
 6    0  0.1555973E+002  0.1142056E+03  0.7546771E-02  0.1252974E+00
         21   -1    0    0  505  501  0.00000000000E+00  0.00000000000E+00  0.46926164375E+03  0.46926164375E+03  0.00000000000E+00 0. -1.
         21   -1    0    0  503  502 -0.00000000000E+00 -0.00000000000E+00 -0.13134876385E+03  0.13134876385E+03  0.00000000000E+00 0.  1.
         21    1    1    2  503  501  0.54335978336E+02 -0.16335894724E+02  0.84521775483E+02  0.10179975702E+03  0.00000000000E+00 0. -1.
         21    1    1    2  504  502 -0.12562420354E+03 -0.14471991947E+02 -0.78355886853E+02  0.14876331561E+03  0.00000000000E+00 0.  1.
         21    1    1    2  505  506  0.21688509794E+02 -0.21240193824E+02  0.17479805309E+03  0.17741447702E+03  0.00000000000E+00 0. -1.
         21    1    1    2  506  504  0.49599715410E+02  0.52048080494E+02  0.15694893818E+03  0.17263285796E+03  0.00000000000E+00 0.  1.
<scales pt_clust_3="65.43588" pt_clust_4="14000.00000" pt_clust_5="30.35683" pt_clust_6="114.20562"></scales>
<clustering>
<clus scale="   30.357">  1  5  2 -1</clus>
<clus scale="   65.436">  1  3  2 -1</clus>
<clus scale="  114.206">  1  6  2 -1</clus>
<clus scale="   30.357">  1  3  2 -1</clus>
</clustering>
</event>
<event>
 6    0  0.1555973E+002  0.1317195E+03  0.7546771E-02  0.1224926E+00
         21   -1    0    0  506  501  0.00000000000E+00  0.00000000000E+00  0.11962364885E+04  0.11962364885E+04  0.00000000000E+00 0. -1.
         21   -1    0    0  503  502 -0.00000000000E+00 -0.00000000000E+00 -0.29635974075E+02  0.29635974075E+02  0.00000000000E+00 0. -1.
         21    1    1    2  503  501 -0.12394185421E+03 -0.54493685915E+02  0.27174086610E+03  0.30360211353E+03  0.00000000000E+00 0. -1.
         21    1    1    2  504  505  0.76649916027E+02 -0.18264360320E+02  0.51156190927E+03  0.51759480630E+03  0.00000000000E+00 0. -1.
         21    1    1    2  505  502  0.45001762192E+01  0.45462466174E+02  0.50778138544E+02  0.68304515009E+02  0.00000000000E+00 0. -1.
         21    1    1    2  506  504  0.42791761966E+02  0.27295580061E+02  0.33251960053E+03  0.33637102776E+03  0.00000000000E+00 0. -1.
<scales pt_clust_3="122.12229" pt_clust_4="39.61379" pt_clust_5="45.68465" pt_clust_6="39.61379"></scales>
<clustering>
<clus scale="   39.614">  4  6 -1 -1</clus>
<clus scale="   45.685">  2  5  1 -1</clus>
<clus scale="  122.122">  2  3  1 -1</clus>
<clus scale="  131.720">  1  3  2 -1</clus>
</clustering>
</event>
<event>
 6    0  0.1555973E+002  0.1582027E+03  0.7546771E-02  0.1190741E+00
         21   -1    0    0  503  501  0.00000000000E+00  0.00000000000E+00  0.49648681198E+03  0.49648681198E+03  0.00000000000E+00 0. -1.
         21   -1    0    0  506  502 -0.00000000000E+00 -0.00000000000E+00 -0.37013797036E+03  0.37013797036E+03  0.00000000000E+00 0. -1.
         21    1    1    2  503  502  0.13558339032E+02  0.58283255337E+02 -0.28440865695E+03  0.29063559754E+03  0.00000000000E+00 0. -1.
         21    1    1    2  504  505 -0.34741139878E+02  0.36870556287E+02 -0.16940431614E+02  0.53416878833E+02  0.00000000000E+00 0. -1.
         21    1    1    2  505  501  0.38032599267E+02 -0.15947906855E+03  0.42555187999E+03  0.45604216304E+03  0.00000000000E+00 0. -1.
         21    1    1    2  506  504 -0.16849798420E+02  0.64325256927E+02  0.21460501989E+01  0.66530142920E+02  0.00000000000E+00 0. -1.
<scales pt_clust_3="59.83951" pt_clust_4="31.05881" pt_clust_5="154.14891" pt_clust_6="31.05881"></scales>
<clustering>
<clus scale="   31.059">  4  6 -1 -1</clus>
<clus scale="   59.840">  2  3  1 -1</clus>
<clus scale="  154.149">  1  5  2 -1</clus>
<clus scale="  154.149">  1  3  2 -1</clus>
</clustering>
</event>
<event>
 6    0  0.1555973E+002  0.2871111E+03  0.7546771E-02  0.1091867E+00
         21   -1    0    0  504  501  0.00000000000E+00  0.00000000000E+00  0.17886514932E+03  0.17886514932E+03  0.00000000000E+00 0. -1.
         21   -1    0    0  503  502 -0.00000000000E+00 -0.00000000000E+00 -0.14129663908E+04  0.14129663908E+04  0.00000000000E+00 0.  1.
         21    1    1    2  503  506 -0.23265697513E+02  0.19344983116E+02 -0.44502403071E+02  0.53814356185E+02  0.00000000000E+00 0.  1.
         21    1    1    2  504  505 -0.74825372637E+02  0.25989852717E+03 -0.52128095210E+02  0.27543314820E+03  0.00000000000E+00 0. -1.
         21    1    1    2  505  502  0.85490933651E+02  0.11571597579E+03 -0.21123131021E+03  0.25557298997E+03  0.00000000000E+00 0. -1.
         21    1    1    2  506  501  0.12600136498E+02 -0.39495948608E+03 -0.92623943295E+03  0.10070110457E+04  0.00000000000E+00 0.  1.
<scales pt_clust_3="30.25758" pt_clust_4="287.11105" pt_clust_5="144.26055" pt_clust_6="14000.00000"></scales>
<clustering>
<clus scale="   30.258">  2  3  1 -1</clus>
<clus scale="  144.261">  2  5  1 -1</clus>
<clus scale="  287.111">  1  4  2 -1</clus>
<clus scale="  287.111">  1  3  2 -1</clus>
</clustering>
</event>
<event>
 6    0  0.1555973E+002  0.1217334E+03  0.7546771E-02  0.1240265E+00
         21   -1    0    0  506  501  0.00000000000E+00  0.00000000000E+00  0.88338744128E+03  0.88338744128E+03  0.00000000000E+00 0.  1.
         21   -1    0    0  503  502 -0.00000000000E+00 -0.00000000000E+00 -0.10536870614E+03  0.10536870614E+03  0.00000000000E+00 0. -1.
         21    1    1    2  503  505 -0.18247552638E+02  0.98370277583E+02 -0.49185225832E+02  0.11148484708E+03  0.00000000000E+00 0. -1.
         21    1    1    2  504  502  0.42713009120E+02  0.26785480028E+02  0.16038768607E+02  0.52906570357E+02  0.00000000000E+00 0.  1.
         21    1    1    2  505  501  0.59948622296E+01 -0.10715213146E+03  0.51286020837E+03  0.52396861640E+03  0.00000000000E+00 0. -1.
         21    1    1    2  506  504 -0.30460318712E+02 -0.18003626155E+02  0.29830498400E+03  0.30039611358E+03  0.00000000000E+00 0.  1.
<scales pt_clust_3="14000.00000" pt_clust_4="48.32917" pt_clust_5="121.73340" pt_clust_6="35.38307"></scales>
<clustering>
<clus scale="   35.383">  1  6  2 -1</clus>
<clus scale="   48.329">  2  4  1 -1</clus>
<clus scale="  121.733">  1  5  2 -1</clus>
<clus scale="   35.383">  1  3  2 -1</clus>
</clustering>
</event>
<event>
 6    0  0.1555973E+002  0.1155368E+03  0.7546771E-02  0.1250647E+00
         21   -1    0    0  505  501  0.00000000000E+00  0.00000000000E+00  0.81014541953E+03  0.81014541953E+03  0.00000000000E+00 0.  1.
         21   -1    0    0  503  502 -0.00000000000E+00 -0.00000000000E+00 -0.12424939675E+04  0.12424939675E+04  0.00000000000E+00 0.  1.
         21    1    1    2  503  506  0.19712403927E+02 -0.52217956661E+02  0.17860095114E+03  0.18711919628E+03  0.00000000000E+00 0.  1.
         21    1    1    2  504  502 -0.44971599832E+02 -0.14956022328E+02 -0.12243688704E+04  0.12252857863E+04  0.00000000000E+00 0.  1.
         21    1    1    2  505  504  0.43266938698E+02  0.11147723644E+03  0.29614505988E+03  0.31937610857E+03  0.00000000000E+00 0.  1.
         21    1    1    2  506  501 -0.18007742793E+02 -0.44303257452E+02  0.31727431134E+03  0.32085829592E+03  0.00000000000E+00 0.  1.
<scales pt_clust_3="50.56617" pt_clust_4="47.39333" pt_clust_5="102.56286" pt_clust_6="50.56617"></scales>
<clustering>
<clus scale="   47.393">  2  4  1 -1</clus>
<clus scale="   50.566">  3  6 -1 -1</clus>
<clus scale="  102.563">  2  5  1 -1</clus>
<clus scale="  115.537">  1  3  2 -1</clus>
</clustering>
</event>
<event>
 6    0  0.1555973E+002  0.1959752E+03  0.7546771E-02  0.1153180E+00
         21   -1    0    0  506  501  0.00000000000E+00  0.00000000000E+00  0.23725745788E+03  0.23725745788E+03  0.00000000000E+00 0.  1.
         21   -1    0    0  505  502 -0.00000000000E+00 -0.00000000000E+00 -0.32666237222E+03  0.32666237222E+03  0.00000000000E+00 0.  1.
         21    1    1    2  503  501 -0.59127398521E+02 -0.12696077202E+03  0.23399632642E+02  0.14199517490E+03  0.00000000000E+00 0.  1.
         21    1    1    2  504  502 -0.98998238172E+02  0.33720309405E+01 -0.12759717924E+03  0.16153346992E+03  0.00000000000E+00 0.  1.
         21    1    1    2  505  503  0.21907475321E+02 -0.37245354292E+02  0.23989169475E+02  0.49423012286E+02  0.00000000000E+00 0.  1.
         21    1    1    2  506  504  0.13621816137E+03  0.16083409537E+03 -0.91965372240E+01  0.21096817300E+03  0.00000000000E+00 0.  1.
<scales pt_clust_3="43.19072" pt_clust_4="99.05565" pt_clust_5="43.19072" pt_clust_6="179.88894"></scales>
<clustering>
<clus scale="   43.191">  3  5 -1 -1</clus>
<clus scale="   99.056">  2  4  1 -1</clus>
<clus scale="  179.889">  2  6  1 -1</clus>
<clus scale="  195.975">  1  3  2 -1</clus>
</clustering>
</event>
<event>
 6    0  0.1555973E+002  0.1356747E+03  0.7546771E-02  0.1219270E+00
         21   -1    0    0  505  501  0.00000000000E+00  0.00000000000E+00  0.92398459845E+03  0.92398459845E+03  0.00000000000E+00 0. -1.
         21   -1    0    0  504  502 -0.00000000000E+00 -0.00000000000E+00 -0.66236069035E+02  0.66236069035E+02  0.00000000000E+00 0. -1.
         21    1    1    2  503  501  0.69988812289E+02  0.82178134147E+02  0.23124030987E+03  0.25519357454E+03  0.00000000000E+00 0. -1.
         21    1    1    2  504  503  0.13193678277E+02  0.31235270460E+02 -0.22177345654E+02  0.40516045309E+02  0.00000000000E+00 0. -1.
         21    1    1    2  505  506 -0.14583290879E+03 -0.86205678730E+02  0.54178366121E+03  0.56765147043E+03  0.00000000000E+00 0. -1.
         21    1    1    2  506  502  0.62650418227E+02 -0.27207725878E+02  0.10690190399E+03  0.12685957720E+03  0.00000000000E+00 0.  1.
<scales pt_clust_3="135.67467" pt_clust_4="33.90745" pt_clust_5="14000.00000" pt_clust_6="68.89184"></scales>
<clustering>
<clus scale="   33.907">  2  4  1 -1</clus>
<clus scale="   68.892">  2  6  1 -1</clus>
<clus scale="  135.675">  1  3  2 -1</clus>
<clus scale="  135.675">  1  3  2 -1</clus>
</clustering>
</event>
<event>
 6    0  0.1555973E+002  0.1078319E+03  0.7546771E-02  0.1264638E+00
         21   -1    0    0  505  501  0.00000000000E+00  0.00000000000E+00  0.10064285329E+03  0.10064285329E+03  0.00000000000E+00 0. -1.
         21   -1    0    0  503  502 -0.00000000000E+00 -0.00000000000E+00 -0.12453099346E+04  0.12453099346E+04  0.00000000000E+00 0.  1.
         21    1    1    2  503  504  0.35200493486E+02  0.71609350856E+02 -0.28059121780E+03  0.29171630975E+03  0.00000000000E+00 0.  1.
         21    1    1    2  504  501 -0.10838879312E+03 -0.35635942224E+02  0.55819680032E+02  0.12701924079E+03  0.00000000000E+00 0. -1.
         21    1    1    2  505  506  0.51842097530E+02 -0.74837059424E+01 -0.21014771267E+03  0.21657716886E+03  0.00000000000E+00 0.  1.
         21    1    1    2  506  502  0.21346202108E+02 -0.28489702689E+02 -0.70974783091E+03  0.71064006852E+03  0.00000000000E+00 0.  1.
<scales pt_clust_3="14000.00000" pt_clust_4="107.83194" pt_clust_5="63.22646" pt_clust_6="35.59949"></scales>
<clustering>
<clus scale="   35.599">  2  6  1 -1</clus>
<clus scale="   63.226">  2  5  1 -1</clus>
<clus scale="  107.832">  1  4  2 -1</clus>
<clus scale="  107.832">  1  3  2 -1</clus>
</clustering>
</event>
<event>
 6    0  0.1555973E+002  0.6875473E+02  0.7546771E-02  0.1364380E+00
         21   -1    0    0  506  501  0.00000000000E+00  0.00000000000E+00  0.68281661165E+03  0.68281661165E+03  0.00000000000E+00 0.  1.
         21   -1    0    0  503  502 -0.00000000000E+00 -0.00000000000E+00 -0.16014587201E+03  0.16014587201E+03  0.00000000000E+00 0.  1.
         21    1    1    2  503  501 -0.78808130299E+02  0.79685080575E+02  0.23884719892E+03  0.26383407266E+03  0.00000000000E+00 0.  1.
         21    1    1    2  504  505  0.20254434425E+02 -0.59072879486E+02  0.31223181929E+03  0.31841569713E+03  0.00000000000E+00 0.  1.
         21    1    1    2  505  502  0.37525449908E+02 -0.56015584757E+02 -0.13255726349E+03  0.14871897401E+03  0.00000000000E+00 0.  1.
         21    1    1    2  506  504  0.21028245966E+02  0.35403383668E+02  0.10414898493E+03  0.11199373985E+03  0.00000000000E+00 0.  1.
<scales pt_clust_3="68.75473" pt_clust_4="50.82085" pt_clust_5="14000.00000" pt_clust_6="41.17750"></scales>
<clustering>
<clus scale="   41.178">  1  6  2 -1</clus>
<clus scale="   50.821">  1  4  2 -1</clus>
<clus scale="   68.755">  1  3  2 -1</clus>
<clus scale="   41.178">  1  3  2 -1</clus>
</clustering>
</event>
<event>
 6    0  0.1555973E+002  0.8087883E+02  0.7546771E-02  0.1326576E+00
         21   -1    0    0  504  501  0.00000000000E+00  0.00000000000E+00  0.30530663158E+04  0.30530663158E+04  0.00000000000E+00 0. -1.
         21   -1    0    0  503  502 -0.00000000000E+00 -0.00000000000E+00 -0.31910173266E+03  0.31910173266E+03  0.00000000000E+00 0.  1.
         21    1    1    2  503  506 -0.56754096596E+02  0.48809303376E+02 -0.30633349592E+03  0.31534677151E+03  0.00000000000E+00 0.  1.
         21    1    1    2  504  505  0.36985738309E+02 -0.53554546200E+02  0.21156516021E+04  0.21166524834E+04  0.00000000000E+00 0. -1.
         21    1    1    2  505  502 -0.34461163261E+02 -0.68672174014E+02  0.35144649021E+03  0.35974723729E+03  0.00000000000E+00 0. -1.
         21    1    1    2  506  501  0.54229521548E+02  0.73417416838E+02  0.57319998677E+03  0.58042155623E+03  0.00000000000E+00 0.  1.
<scales pt_clust_3="74.55289" pt_clust_4="65.08482" pt_clust_5="14000.00000" pt_clust_6="80.87883"></scales>
<clustering>
<clus scale="   65.085">  1  4  2 -1</clus>
<clus scale="   74.553">  2  3  1 -1</clus>
<clus scale="   80.879">  1  6  2 -1</clus>
<clus scale="   65.085">  1  3  2 -1</clus>
</clustering>
</event>
<event>
 6    0  0.1555973E+002  0.9188546E+02  0.7546771E-02  0.1298349E+00
         21   -1    0    0  505  501  0.00000000000E+00  0.00000000000E+00  0.16101446958E+03  0.16101446958E+03  0.00000000000E+00 0. -1.
         21   -1    0    0  503  502 -0.00000000000E+00 -0.00000000000E+00 -0.60292555177E+03  0.60292555177E+03  0.00000000000E+00 0. -1.
         21    1    1    2  503  504 -0.56264371298E+02  0.70488201528E+02 -0.52159154609E+03  0.52933166067E+03  0.00000000000E+00 0. -1.
         21    1    1    2  504  506  0.11496403694E+03 -0.78227294550E+02  0.43126509918E+02  0.14558892561E+03  0.00000000000E+00 0. -1.
         21    1    1    2  505  502 -0.23195537482E+02 -0.21393607215E+02  0.21358046829E+01  0.31627220086E+02  0.00000000000E+00 0. -1.
         21    1    1    2  506  501 -0.35504128163E+02  0.29132700237E+02  0.34418149297E+02  0.57392214984E+02  0.00000000000E+00 0. -1.
<scales pt_clust_3="91.88546" pt_clust_4="14000.00000" pt_clust_5="31.55502" pt_clust_6="48.35119"></scales>
<clustering>
<clus scale="   31.555">  1  5  2 -1</clus>
<clus scale="   48.351">  1  6  2 -1</clus>
<clus scale="   91.885">  2  3  1 -1</clus>
<clus scale="   31.555">  1  3  2 -1</clus>
</clustering>
</event>
<event>
 6    0  0.1555973E+002  0.2559364E+03  0.7546771E-02  0.1109610E+00
         21   -1    0    0  503  501  0.00000000000E+00  0.00000000000E+00  0.32247763317E+03  0.32247763317E+03  0.00000000000E+00 0.  1.
         21   -1    0    0  504  502 -0.00000000000E+00 -0.00000000000E+00 -0.63492171811E+03  0.63492171811E+03  0.00000000000E+00 0.  1.
         21    1    1    2  503  506  0.85613209495E+02  0.30762963851E+02  0.10121610067E+03  0.13609070732E+03  0.00000000000E+00 0.  1.
         21    1    1    2  504  501 -0.31730856599E+03  0.59706682268E+02 -0.40370910641E+03  0.51694357193E+03  0.00000000000E+00 0.  1.
         21    1    1    2  505  502  0.88104170229E+02 -0.50008530542E+02 -0.89605040785E+02  0.13524888640E+03  0.00000000000E+00 0. -1.
         21    1    1    2  506  505  0.14359118626E+03 -0.40461115577E+02  0.79653961594E+02  0.16911618563E+03  0.00000000000E+00 0.  1.
<scales pt_clust_3="69.00504" pt_clust_4="240.19764" pt_clust_5="101.30744" pt_clust_6="69.00504"></scales>
<clustering>
<clus scale="   69.005">  3  6 -1 -1</clus>
<clus scale="  101.307">  2  5  1 -1</clus>
<clus scale="  240.198">  2  4  1 -1</clus>
<clus scale="  255.936">  1  3  2 -1</clus>
</clustering>
</event>
<event>
 6    0  0.1555973E+002  0.1095086E+03  0.7546771E-02  0.1261483E+00
         21   -1    0    0  503  501  0.00000000000E+00  0.00000000000E+00  0.22599851869E+02  0.22599851869E+02  0.00000000000E+00 0.  1.
         21   -1    0    0  504  502 -0.00000000000E+00 -0.00000000000E+00 -0.26673441121E+04  0.26673441121E+04  0.00000000000E+00 0.  1.
         21    1    1    2  503  502  0.32937159662E+02 -0.19061049117E+02 -0.18001025304E+03  0.18398878031E+03  0.00000000000E+00 0.  1.
         21    1    1    2  504  506 -0.36255537215E+02 -0.16913344974E+02 -0.18807719090E+04  0.18811973577E+04  0.00000000000E+00 0.  1.
         21    1    1    2  505  501  0.60805275272E+02  0.11065704840E+03 -0.29730744610E+03  0.32300771101E+03  0.00000000000E+00 0.  1.
         21    1    1    2  506  505 -0.57486897718E+02 -0.74682654312E+02 -0.28665465210E+03  0.30175011488E+03  0.00000000000E+00 0.  1.
<scales pt_clust_3="38.05496" pt_clust_4="39.78296" pt_clust_5="14000.00000" pt_clust_6="109.50865"></scales>
<clustering>
<clus scale="   38.055">  1  3  2 -1</clus>
<clus scale="   39.783">  2  4  1 -1</clus>
<clus scale="  109.509">  2  6  1 -1</clus>
<clus scale="   38.055">  1  3  2 -1</clus>
</clustering>
</event>
<event>
 6    0  0.1555973E+002  0.1005246E+03  0.7546771E-02  0.1279197E+00
         21   -1    0    0  505  501  0.00000000000E+00  0.00000000000E+00  0.45929350430E+02  0.45929350430E+02  0.00000000000E+00 0. -1.
         21   -1    0    0  503  502 -0.00000000000E+00 -0.00000000000E+00 -0.77413781239E+03  0.77413781239E+03  0.00000000000E+00 0. -1.
         21    1    1    2  503  504 -0.76756278497E+02 -0.38666803077E+02 -0.10793721305E+03  0.13797496117E+03  0.00000000000E+00 0. -1.
         21    1    1    2  504  501 -0.62994614212E+02  0.20399669340E+02 -0.14734509851E+03  0.16153961119E+03  0.00000000000E+00 0.  1.
         21    1    1    2  505  506  0.28765506776E+02  0.31521508824E+02 -0.93426829676E+01  0.43684615412E+02  0.00000000000E+00 0. -1.
         21    1    1    2  506  502  0.11098538593E+03 -0.13254375087E+02 -0.46358346744E+03  0.47686797505E+03  0.00000000000E+00 0. -1.
<scales pt_clust_3="14000.00000" pt_clust_4="62.59684" pt_clust_5="42.67388" pt_clust_6="100.52462"></scales>
<clustering>
<clus scale="   42.674">  1  5  2 -1</clus>
<clus scale="   62.597">  1  4  2 -1</clus>
<clus scale="  100.525">  2  6  1 -1</clus>
<clus scale="   42.674">  1  3  2 -1</clus>
</clustering>
</event>
<event>
 6    0  0.1555973E+002  0.1524698E+03  0.7546771E-02  0.1197471E+00
         21   -1    0    0  505  501  0.00000000000E+00  0.00000000000E+00  0.49317426241E+02  0.49317426241E+02  0.00000000000E+00 0. -1.
         21   -1    0    0  501  502 -0.00000000000E+00 -0.00000000000E+00 -0.13160589816E+04  0.13160589816E+04  0.00000000000E+00 0. -1.
         21    1    1    2  503  504 -0.92365046002E+02 -0.45495795783E+01 -0.74421744814E+02  0.11870381838E+03  0.00000000000E+00 0. -1.
         21    1    1    2  504  506  0.88612569380E+02  0.53506849893E+02 -0.31556683303E+03  0.33211081968E+03  0.00000000000E+00 0. -1.
         21    1    1    2  505  503 -0.69479045447E+02 -0.47831793108E+02 -0.86135905940E+02  0.12055958062E+03  0.00000000000E+00 0. -1.
         21    1    1    2  506  502  0.73231522069E+02 -0.11254772068E+01 -0.79061707158E+03  0.79400218916E+03  0.00000000000E+00 0. -1.
<scales pt_clust_3="48.04712" pt_clust_4="143.93101" pt_clust_5="48.04712" pt_clust_6="73.24017"></scales>
<clustering>
<clus scale="   48.047">  3  5 -1 -1</clus>
<clus scale="   73.240">  2  6  1 -1</clus>
<clus scale="  143.931">  2  4  1 -1</clus>
<clus scale="  152.470">  1  3  2 -1</clus>
</clustering>
</event>
<event>
 6    0  0.1555973E+002  0.1507971E+03  0.7546771E-02  0.1199497E+00
         21   -1    0    0  504  501  0.00000000000E+00  0.00000000000E+00  0.16361503019E+03  0.16361503019E+03  0.00000000000E+00 0.  1.
         21   -1    0    0  506  502 -0.00000000000E+00 -0.00000000000E+00 -0.50784729279E+03  0.50784729279E+03  0.00000000000E+00 0.  1.
         21    1    1    2  503  505  0.95813666275E+02  0.19525202169E+01  0.52692518459E+02  0.10936440226E+03  0.00000000000E+00 0.  1.
         21    1    1    2  504  502  0.23339283603E+02  0.33507227356E+02 -0.22307932485E+02  0.46530638250E+02  0.00000000000E+00 0.  1.
         21    1    1    2  505  501  0.34875885320E+02 -0.89065334206E+02  0.11577521563E+02  0.96348327124E+02  0.00000000000E+00 0.  1.
         21    1    1    2  506  503 -0.15402883520E+03  0.53605586633E+02 -0.38619437014E+03  0.41921895535E+03  0.00000000000E+00 0.  1.
<scales pt_clust_3="150.79709" pt_clust_4="40.83450" pt_clust_5="88.39921" pt_clust_6="14000.00000"></scales>
<clustering>
<clus scale="   40.835">  1  4  2 -1</clus>
<clus scale="   88.399">  1  5  2 -1</clus>
<clus scale="  150.797">  1  3  2 -1</clus>
<clus scale="   40.835">  1  3  2 -1</clus>
</clustering>
</event>
<event>
 6    0  0.1555973E+002  0.1231327E+03  0.7546771E-02  0.1238017E+00
         21   -1    0    0  505  501  0.00000000000E+00  0.00000000000E+00  0.13825209471E+04  0.13825209471E+04  0.00000000000E+00 0.  1.
         21   -1    0    0  506  502 -0.00000000000E+00 -0.00000000000E+00 -0.20078675734E+03  0.20078675734E+03  0.00000000000E+00 0.  1.
         21    1    1    2  503  502  0.65488995163E+02  0.33578311353E+02 -0.17398185890E+03  0.18890738130E+03  0.00000000000E+00 0.  1.
         21    1    1    2  504  503 -0.69888980724E+02  0.10040040151E+03  0.29071233185E+03  0.31540191842E+03  0.00000000000E+00 0.  1.
         21    1    1    2  505  504  0.30256023225E+02 -0.11735478356E+03  0.99738035835E+03  0.10047164532E+04  0.00000000000E+00 0.  1.
         21    1    1    2  506  501 -0.25856037664E+02 -0.16623929298E+02  0.67623358508E+02  0.74281951542E+02  0.00000000000E+00 0.  1.
<scales pt_clust_3="73.42153" pt_clust_4="123.13267" pt_clust_5="14000.00000" pt_clust_6="30.73906"></scales>
<clustering>
<clus scale="   30.739">  1  6  2 -1</clus>
<clus scale="   73.422">  2  3  1 -1</clus>
<clus scale="  123.133">  2  4  1 -1</clus>
<clus scale="   30.739">  1  3  2 -1</clus>
</clustering>
</event>
<event>
 6    0  0.1555973E+002  0.6830365E+02  0.7546771E-02  0.1365958E+00
         21   -1    0    0  504  501  0.00000000000E+00  0.00000000000E+00  0.15075530217E+03  0.15075530217E+03  0.00000000000E+00 0.  1.
         21   -1    0    0  506  502 -0.00000000000E+00 -0.00000000000E+00 -0.25407007151E+03  0.25407007151E+03  0.00000000000E+00 0.  1.
         21    1    1    2  503  502 -0.10197822687E+02  0.65602791539E+02 -0.16377088819E+03  0.17671622921E+03  0.00000000000E+00 0.  1.
         21    1    1    2  504  505  0.35224591637E+02  0.44317266075E+02  0.76286380190E+02  0.94996861690E+02  0.00000000000E+00 0.  1.
         21    1    1    2  505  503 -0.48401511660E+02 -0.85894179614E+02 -0.13473800621E+02  0.99509093683E+02  0.00000000000E+00 0.  1.
         21    1    1    2  506  501  0.23374742710E+02 -0.24025878000E+02 -0.23564607158E+01  0.33603189098E+02  0.00000000000E+00 0.  1.
<scales pt_clust_3="68.30365" pt_clust_4="57.88027" pt_clust_5="14000.00000" pt_clust_6="33.52046"></scales>
<clustering>
<clus scale="   33.520">  1  6  2 -1</clus>
<clus scale="   57.880">  1  4  2 -1</clus>
<clus scale="   68.304">  2  3  1 -1</clus>
<clus scale="   33.520">  1  3  2 -1</clus>
</clustering>
</event>
<event>
 6    0  0.1555973E+002  0.8632901E+02  0.7546771E-02  0.1311993E+00
         21   -1    0    0  505  501  0.00000000000E+00  0.00000000000E+00  0.63080953684E+02  0.63080953684E+02  0.00000000000E+00 0.  1.
         21   -1    0    0  506  502 -0.00000000000E+00 -0.00000000000E+00 -0.45862909599E+03  0.45862909599E+03  0.00000000000E+00 0.  1.
         21    1    1    2  503  501 -0.74717738121E+02  0.13271022052E+02 -0.31839956761E+02  0.82296070762E+02  0.00000000000E+00 0. -1.
         21    1    1    2  504  503  0.12393285610E+03  0.63265372107E+02 -0.16156566255E+03  0.21322599149E+03  0.00000000000E+00 0.  1.
         21    1    1    2  505  502 -0.31010787153E+02 -0.46581391737E+02 -0.70780255544E+02  0.90229371886E+02  0.00000000000E+00 0.  1.
         21    1    1    2  506  504 -0.18204330825E+02 -0.29955002422E+02 -0.13136226744E+03  0.13595861554E+03  0.00000000000E+00 0.  1.
<scales pt_clust_3="86.32901" pt_clust_4="14000.00000" pt_clust_5="64.63703" pt_clust_6="35.05281"></scales>
<clustering>
<clus scale="   35.053">  2  6  1 -1</clus>
<clus scale="   64.637">  2  5  1 -1</clus>
<clus scale="   86.329">  1  3  2 -1</clus>
<clus scale="   86.329">  1  3  2 -1</clus>
</clustering>
</event>
<event>
 6    0  0.1555973E+002  0.3628382E+03  0.7546771E-02  0.1057466E+00
         21   -1    0    0  504  501  0.00000000000E+00  0.00000000000E+00  0.64254866924E+03  0.64254866924E+03  0.00000000000E+00 0. -1.
         21   -1    0    0  505  502 -0.00000000000E+00 -0.00000000000E+00 -0.95467002001E+03  0.95467002001E+03  0.00000000000E+00 0.  1.
         21    1    1    2  503  501 -0.73322325811E+02 -0.31433621693E+02 -0.29340200824E+02  0.85000490701E+02  0.00000000000E+00 0.  1.
         21    1    1    2  504  502 -0.14932206281E+03 -0.16006131347E+03  0.50319783569E+03  0.54874836160E+03  0.00000000000E+00 0. -1.
         21    1    1    2  505  506  0.28391684033E+03  0.24398736701E+03 -0.79842890393E+03  0.88183179922E+03  0.00000000000E+00 0.  1.
         21    1    1    2  506  503 -0.61272451707E+02 -0.52492431838E+02  0.12449918299E+02  0.81638037728E+02  0.00000000000E+00 0.  1.
<scales pt_clust_3="47.93390" pt_clust_4="362.83817" pt_clust_5="14000.00000" pt_clust_6="165.78033"></scales>
<clustering>
<clus scale="   47.934">  3  6 -1 -1</clus>
<clus scale="  165.780">  1  3  2 -1</clus>
<clus scale="  362.838">  1  4  2 -1</clus>
<clus scale="  165.780">  1  3  2 -1</clus>
</clustering>
</event>
<event>
 6    0  0.1555973E+002  0.7867379E+02  0.7546771E-02  0.1332858E+00
         21   -1    0    0  504  501  0.00000000000E+00  0.00000000000E+00  0.13380375081E+04  0.13380375081E+04  0.00000000000E+00 0.  1.
         21   -1    0    0  505  502 -0.00000000000E+00 -0.00000000000E+00 -0.92384433684E+02  0.92384433684E+02  0.00000000000E+00 0.  1.
         21    1    1    2  503  502 -0.62301123306E+02 -0.47826755323E+02 -0.57603544788E+02  0.97401215917E+02  0.00000000000E+00 0.  1.
         21    1    1    2  504  506  0.55956254777E+01  0.45750699970E+02  0.92479153522E+02  0.10332875403E+03  0.00000000000E+00 0.  1.
         21    1    1    2  505  501  0.10887321859E+03 -0.12572431930E+01  0.11172865471E+04  0.11225792563E+04  0.00000000000E+00 0.  1.
         21    1    1    2  506  503 -0.52167720758E+02  0.33332985456E+01  0.93490918532E+02  0.10711271547E+03  0.00000000000E+00 0.  1.
<scales pt_clust_3="78.67379" pt_clust_4="46.09162" pt_clust_5="14000.00000" pt_clust_6="52.19126"></scales>
<clustering>
<clus scale="   46.092">  1  4  2 -1</clus>
<clus scale="   52.191">  1  6  2 -1</clus>
<clus scale="   78.674">  2  3  1 -1</clus>
<clus scale="   46.092">  1  3  2 -1</clus>
</clustering>
</event>
<event>
 6    0  0.1555973E+002  0.1036627E+03  0.7546771E-02  0.1272777E+00
         21   -1    0    0  506  501  0.00000000000E+00  0.00000000000E+00  0.30537472984E+02  0.30537472984E+02  0.00000000000E+00 0. -1.
         21   -1    0    0  505  502 -0.00000000000E+00 -0.00000000000E+00 -0.21574532781E+04  0.21574532781E+04  0.00000000000E+00 0. -1.
         21    1    1    2  503  502  0.12327851522E+02  0.44918214389E+02 -0.73522425003E+02  0.87035446143E+02  0.00000000000E+00 0. -1.
         21    1    1    2  504  501 -0.92685964368E+02 -0.11302986128E+03 -0.45552538988E+03  0.47840340546E+03  0.00000000000E+00 0. -1.
         21    1    1    2  505  504  0.56651113291E+02  0.33690693098E+02 -0.15720382755E+04  0.15734194453E+04  0.00000000000E+00 0. -1.
         21    1    1    2  506  503  0.23706999555E+02  0.34420953791E+02 -0.25829714826E+02  0.49132454201E+02  0.00000000000E+00 0. -1.
<scales pt_clust_3="31.09583" pt_clust_4="98.32766" pt_clust_5="65.91215" pt_clust_6="31.09583"></scales>
<clustering>
<clus scale="   31.096">  3  6 -1 -1</clus>
<clus scale="   65.912">  2  5  1 -1</clus>
<clus scale="   98.328">  2  4  1 -1</clus>
<clus scale="  103.663">  1  3  2 -1</clus>
</clustering>
</event>
<event>
 6    0  0.1555973E+002  0.8839270E+02  0.7546771E-02  0.1306791E+00
         21   -1    0    0  503  501  0.00000000000E+00  0.00000000000E+00  0.90786129278E+02  0.90786129278E+02  0.00000000000E+00 0.  1.
         21   -1    0    0  505  502 -0.00000000000E+00 -0.00000000000E+00 -0.98063317709E+03  0.98063317709E+03  0.00000000000E+00 0. -1.
         21    1    1    2  503  506 -0.46140042116E+02  0.12761235615E+02 -0.17966391223E+02  0.51132610285E+02  0.00000000000E+00 0.  1.
         21    1    1    2  504  502  0.39960729485E+01  0.89560685883E+02 -0.86988866435E+03  0.87449606827E+03  0.00000000000E+00 0. -1.
         21    1    1    2  505  501 -0.72593431115E+01 -0.45713442059E+02 -0.40373649650E+02  0.61420260773E+02  0.00000000000E+00 0. -1.
         21    1    1    2  506  504  0.49403312280E+02 -0.56608479438E+02  0.38381657414E+02  0.84370367039E+02  0.00000000000E+00 0.  1.
<scales pt_clust_3="47.75519" pt_clust_4="88.39270" pt_clust_5="46.28625" pt_clust_6="14000.00000"></scales>
<clustering>
<clus scale="   46.286">  1  5  2 -1</clus>
<clus scale="   47.755">  1  3  2 -1</clus>
<clus scale="   88.393">  2  4  1 -1</clus>
<clus scale="   46.286">  1  3  2 -1</clus>
</clustering>
</event>
<event>
 6    0  0.1555973E+002  0.7565729E+02  0.7546771E-02  0.1341848E+00
         21   -1    0    0  505  501  0.00000000000E+00  0.00000000000E+00  0.67124195693E+03  0.67124195693E+03  0.00000000000E+00 0.  1.
         21   -1    0    0  503  502 -0.00000000000E+00 -0.00000000000E+00 -0.51627648289E+03  0.51627648289E+03  0.00000000000E+00 0. -1.
         21    1    1    2  503  504 -0.75022138132E+02  0.10096978941E+02 -0.49091496499E+03  0.49671699492E+03  0.00000000000E+00 0. -1.
         21    1    1    2  504  506  0.66785616158E+02 -0.18701365764E+02  0.48762649651E+03  0.49253391731E+03  0.00000000000E+00 0.  1.
         21    1    1    2  505  502  0.39985466499E+02 -0.37517842334E+02  0.11537745686E+03  0.12774342870E+03  0.00000000000E+00 0. -1.
         21    1    1    2  506  501 -0.31748944525E+02  0.46122229157E+02  0.42876485659E+02  0.70524098883E+02  0.00000000000E+00 0. -1.
<scales pt_clust_3="75.65729" pt_clust_4="14000.00000" pt_clust_5="54.83089" pt_clust_6="50.48126"></scales>
<clustering>
<clus scale="   54.831">  1  5  2 -1</clus>
<clus scale="   50.481">  1  6  2 -1</clus>
<clus scale="   75.657">  2  3  1 -1</clus>
<clus scale="   54.831">  1  3  2 -1</clus>
</clustering>
</event>
<event>
 6    0  0.1555973E+002  0.1081393E+03  0.7546771E-02  0.1264055E+00
         21   -1    0    0  504  501  0.00000000000E+00  0.00000000000E+00  0.50751666449E+02  0.50751666449E+02  0.00000000000E+00 0.  1.
         21   -1    0    0  503  502 -0.00000000000E+00 -0.00000000000E+00 -0.46137290017E+03  0.46137290017E+03  0.00000000000E+00 0.  1.
         21    1    1    2  503  506  0.26651139841E+02 -0.43691090655E+02 -0.21941450339E+03  0.22530405890E+03  0.00000000000E+00 0.  1.
         21    1    1    2  504  505  0.21517765065E+02  0.27633848407E+02 -0.19501981780E+02  0.40087043849E+02  0.00000000000E+00 0.  1.
         21    1    1    2  505  502 -0.11799351773E+02  0.91852198087E+02 -0.99318983258E+02  0.13579510827E+03  0.00000000000E+00 0.  1.
         21    1    1    2  506  501 -0.36369553134E+02 -0.75794955839E+02 -0.72385765291E+02  0.11093835560E+03  0.00000000000E+00 0.  1.
<scales pt_clust_3="51.17807" pt_clust_4="30.40708" pt_clust_5="30.40708" pt_clust_6="96.17362"></scales>
<clustering>
<clus scale="   30.407">  4  5 -1 -1</clus>
<clus scale="   51.178">  2  3  1 -1</clus>
<clus scale="   96.174">  1  6  2 -1</clus>
<clus scale="   96.174">  1  3  2 -1</clus>
</clustering>
</event>
<event>
 6    0  0.1555973E+002  0.8839718E+02  0.7546771E-02  0.1306780E+00
         21   -1    0    0  503  501  0.00000000000E+00  0.00000000000E+00  0.23003792111E+03  0.23003792111E+03  0.00000000000E+00 0.  1.
         21   -1    0    0  504  502 -0.00000000000E+00 -0.00000000000E+00 -0.12057221161E+03  0.12057221161E+03  0.00000000000E+00 0. -1.
         21    1    1    2  503  506  0.22040106373E+02  0.40640879425E+02  0.50805436903E+02  0.68692356113E+02  0.00000000000E+00 0.  1.
         21    1    1    2  504  505 -0.64586098708E+02  0.34458722880E+02  0.59832736079E+02  0.94544825535E+02  0.00000000000E+00 0.  1.
         21    1    1    2  505  501 -0.33566070634E+02 -0.20969224584E+02  0.62754592853E+02  0.74192509067E+02  0.00000000000E+00 0.  1.
         21    1    1    2  506  502  0.76112062969E+02 -0.54130377720E+02 -0.63927056333E+02  0.11318044201E+03  0.00000000000E+00 0. -1.
<scales pt_clust_3="34.26625" pt_clust_4="88.39718" pt_clust_5="39.57764" pt_clust_6="14000.00000"></scales>
<clustering>
<clus scale="   39.578">  1  5  2 -1</clus>
<clus scale="   34.266">  1  3  2 -1</clus>
<clus scale="   88.397">  1  4  2 -1</clus>
<clus scale="   39.578">  1  3  2 -1</clus>
</clustering>
</event>
<event>
 6    0  0.1555973E+002  0.1865627E+03  0.7546771E-02  0.1161599E+00
         21   -1    0    0  505  501  0.00000000000E+00  0.00000000000E+00  0.44187408941E+03  0.44187408941E+03  0.00000000000E+00 0.  1.
         21   -1    0    0  504  502 -0.00000000000E+00 -0.00000000000E+00 -0.32198138000E+03  0.32198138000E+03  0.00000000000E+00 0.  1.
         21    1    1    2  503  502  0.48724613889E+01  0.38346655925E+02 -0.23802849852E+03  0.24114678727E+03  0.00000000000E+00 0.  1.
         21    1    1    2  504  501  0.17265154379E+03 -0.56742481215E+02  0.10947745400E+03  0.21216403485E+03  0.00000000000E+00 0.  1.
         21    1    1    2  505  506 -0.45891884545E+02 -0.11318931793E+02  0.38453637654E+02  0.60933287560E+02  0.00000000000E+00 0.  1.
         21    1    1    2  506  503 -0.13163212063E+03  0.29714757083E+02  0.20999011628E+03  0.24961135973E+03  0.00000000000E+00 0.  1.
<scales pt_clust_3="38.65497" pt_clust_4="178.73199" pt_clust_5="31.65362" pt_clust_6="31.65362"></scales>
<clustering>
<clus scale="   31.654">  5  6 -1 -1</clus>
<clus scale="   38.655">  2  3  1 -1</clus>
<clus scale="  178.732">  2  4  1 -1</clus>
<clus scale="  186.563">  1  3  2 -1</clus>
</clustering>
</event>
<event>
 6    0  0.1555973E+002  0.2803797E+03  0.7546771E-02  0.1095482E+00
         21   -1    0    0  506  501  0.00000000000E+00  0.00000000000E+00  0.83039507261E+03  0.83039507261E+03  0.00000000000E+00 0. -1.
         21   -1    0    0  503  502 -0.00000000000E+00 -0.00000000000E+00 -0.19349773569E+03  0.19349773569E+03  0.00000000000E+00 0. -1.
         21    1    1    2  503  501  0.19735313557E+02  0.30770602125E+02 -0.34303125511E+02  0.50130000760E+02  0.00000000000E+00 0. -1.
         21    1    1    2  504  505 -0.95626535064E+02 -0.51667567260E+02  0.37998502218E+02  0.11514277175E+03  0.00000000000E+00 0.  1.
         21    1    1    2  505  502 -0.33172023739E+02 -0.19419943062E+03  0.17995390441E+02  0.19783234339E+03  0.00000000000E+00 0. -1.
         21    1    1    2  506  504  0.10906324525E+03  0.21509639576E+03  0.61520656978E+03  0.66078769241E+03  0.00000000000E+00 0. -1.
<scales pt_clust_3="36.55561" pt_clust_4="100.47981" pt_clust_5="100.47981" pt_clust_6="246.64610"></scales>
<clustering>
<clus scale="   36.556">  2  3  1 -1</clus>
<clus scale="  100.480">  4  5 -1 -1</clus>
<clus scale="  246.646">  1  6  2 -1</clus>
<clus scale="  246.646">  1  3  2 -1</clus>
</clustering>
</event>
<event>
 6    0  0.1555973E+002  0.1152065E+03  0.7546771E-02  0.1251221E+00
         21   -1    0    0  504  501  0.00000000000E+00  0.00000000000E+00  0.10848797148E+04  0.10848797148E+04  0.00000000000E+00 0. -1.
         21   -1    0    0  505  502 -0.00000000000E+00 -0.00000000000E+00 -0.14548284519E+03  0.14548284519E+03  0.00000000000E+00 0. -1.
         21    1    1    2  503  506  0.67303834430E+02 -0.25548711377E+02  0.26573827654E+03  0.27531686181E+03  0.00000000000E+00 0. -1.
         21    1    1    2  504  503  0.62950251386E+01 -0.66180213514E+02  0.64500292894E+03  0.64841979176E+03  0.00000000000E+00 0. -1.
         21    1    1    2  505  501  0.31794574321E+02  0.35436021246E+02  0.13718381496E+03  0.14521021192E+03  0.00000000000E+00 0. -1.
         21    1    1    2  506  502 -0.10539343389E+03  0.56292903645E+02 -0.10852815083E+03  0.16141569450E+03  0.00000000000E+00 0. -1.
<scales pt_clust_3="115.20645" pt_clust_4="50.43771" pt_clust_5="47.60889" pt_clust_6="14000.00000"></scales>
<clustering>
<clus scale="   47.609">  1  5  2 -1</clus>
<clus scale="   50.438">  1  4  2 -1</clus>
<clus scale="  115.206">  1  3  2 -1</clus>
<clus scale="   47.609">  1  3  2 -1</clus>
</clustering>
</event>
<event>
 6    0  0.1555973E+002  0.3309629E+03  0.7546771E-02  0.1070712E+00
         21   -1    0    0  504  501  0.00000000000E+00  0.00000000000E+00  0.12479694395E+04  0.12479694395E+04  0.00000000000E+00 0.  1.
         21   -1    0    0  505  502 -0.00000000000E+00 -0.00000000000E+00 -0.70651123261E+03  0.70651123261E+03  0.00000000000E+00 0.  1.
         21    1    1    2  503  506  0.60775472542E+02  0.12763589688E+03  0.25655210250E+02  0.14367592021E+03  0.00000000000E+00 0.  1.
         21    1    1    2  504  502 -0.16130248813E+03 -0.27294361604E+03  0.96008886244E+03  0.10110822588E+04  0.00000000000E+00 0.  1.
         21    1    1    2  505  503 -0.15810368695E+02  0.39583967571E+02 -0.58631577617E+03  0.58786311981E+03  0.00000000000E+00 0.  1.
         21    1    1    2  506  501  0.11633738428E+03  0.10572375159E+03  0.14202991042E+03  0.21185937337E+03  0.00000000000E+00 0.  1.
<scales pt_clust_3="109.70152" pt_clust_4="311.56873" pt_clust_5="42.62462" pt_clust_6="109.70152"></scales>
<clustering>
<clus scale="   42.625">  2  5  1 -1</clus>
<clus scale="  109.702">  3  6 -1 -1</clus>
<clus scale="  311.569">  1  4  2 -1</clus>
<clus scale="  311.569">  1  3  2 -1</clus>
</clustering>
</event>
<event>
 6    0  0.1555973E+002  0.1263860E+03  0.7546771E-02  0.1232919E+00
         21   -1    0    0  503  501  0.00000000000E+00  0.00000000000E+00  0.45988077742E+03  0.45988077742E+03  0.00000000000E+00 0.  1.
         21   -1    0    0  506  502 -0.00000000000E+00 -0.00000000000E+00 -0.11851848561E+03  0.11851848561E+03  0.00000000000E+00 0. -1.
         21    1    1    2  503  505 -0.33061905697E+02 -0.90448998211E+01  0.15877071250E+03  0.16242856574E+03  0.00000000000E+00 0.  1.
         21    1    1    2  504  501 -0.75785786596E+02  0.35381363566E+02  0.13236736749E+03  0.15657728544E+03  0.00000000000E+00 0.  1.
         21    1    1    2  505  502 -0.37824637566E+02 -0.50947016239E+02  0.85568767989E+02  0.10652847378E+03  0.00000000000E+00 0.  1.
         21    1    1    2  506  504  0.14667232986E+03  0.24610552495E+02 -0.35344556180E+02  0.15286493807E+03  0.00000000000E+00 0. -1.
<scales pt_clust_3="34.27681" pt_clust_4="126.38604" pt_clust_5="72.42771" pt_clust_6="14000.00000"></scales>
<clustering>
<clus scale="   34.277">  1  3  2 -1</clus>
<clus scale="   72.428">  1  5  2 -1</clus>
<clus scale="  126.386">  1  4  2 -1</clus>
<clus scale="   34.277">  1  3  2 -1</clus>
</clustering>
</event>
<event>
 6    0  0.1555973E+002  0.1198703E+03  0.7546771E-02  0.1243311E+00
         21   -1    0    0  502  501  0.00000000000E+00  0.00000000000E+00  0.84393542200E+03  0.84393542200E+03  0.00000000000E+00 0.  1.
         21   -1    0    0  505  502 -0.00000000000E+00 -0.00000000000E+00 -0.12358315206E+03  0.12358315206E+03  0.00000000000E+00 0. -1.
         21    1    1    2  503  506 -0.10077102894E+03  0.78747009542E+01  0.85415306787E+02  0.13233512694E+03  0.00000000000E+00 0. -1.
         21    1    1    2  504  503 -0.39856035783E+02  0.39422892297E+02  0.70654434161E+01  0.56502995638E+02  0.00000000000E+00 0. -1.
         21    1    1    2  505  504  0.17836205938E+02 -0.27574581695E+02 -0.66017509051E+02  0.73734654670E+02  0.00000000000E+00 0. -1.
         21    1    1    2  506  501  0.12279085878E+03 -0.19723011556E+02  0.69388902878E+03  0.70494579681E+03  0.00000000000E+00 0.  1.
<scales pt_clust_3="119.87034" pt_clust_4="41.42591" pt_clust_5="32.84034" pt_clust_6="14000.00000"></scales>
<clustering>
<clus scale="   32.840">  2  5  1 -1</clus>
<clus scale="   41.426">  2  4  1 -1</clus>
<clus scale="  119.870">  2  3  1 -1</clus>
<clus scale="  119.870">  1  3  2 -1</clus>
</clustering>
</event>
<event>
 6    0  0.1555973E+002  0.2205289E+03  0.7546771E-02  0.1133489E+00
         21   -1    0    0  504  501  0.00000000000E+00  0.00000000000E+00  0.25488139813E+03  0.25488139813E+03  0.00000000000E+00 0. -1.
         21   -1    0    0  503  502 -0.00000000000E+00 -0.00000000000E+00 -0.31803660150E+03  0.31803660150E+03  0.00000000000E+00 0. -1.
         21    1    1    2  503  505  0.98981818723E+01  0.95412330049E+02 -0.10518836757E+03  0.14235898075E+03  0.00000000000E+00 0. -1.
         21    1    1    2  504  502  0.58780419575E+02 -0.23822720401E+03  0.90825238101E+01  0.24553987598E+03  0.00000000000E+00 0. -1.
         21    1    1    2  505  506 -0.41352790443E+02  0.87198180942E+02 -0.25516678415E+02  0.99823228331E+02  0.00000000000E+00 0. -1.
         21    1    1    2  506  501 -0.27325811004E+02  0.55616693024E+02  0.58467318804E+02  0.85195914563E+02  0.00000000000E+00 0. -1.
<scales pt_clust_3="81.95757" pt_clust_4="203.47135" pt_clust_5="81.95757" pt_clust_6="61.96706"></scales>
<clustering>
<clus scale="   61.967">  1  6  2 -1</clus>
<clus scale="   81.958">  3  5 -1 -1</clus>
<clus scale="  203.471">  1  4  2 -1</clus>
<clus scale="   61.967">  1  3  2 -1</clus>
</clustering>
</event>
<event>
 6    0  0.1555973E+002  0.1211821E+03  0.7546771E-02  0.1241160E+00
         21   -1    0    0  505  501  0.00000000000E+00  0.00000000000E+00  0.51590550902E+03  0.51590550902E+03  0.00000000000E+00 0.  1.
         21   -1    0    0  506  502 -0.00000000000E+00 -0.00000000000E+00 -0.19372941505E+03  0.19372941505E+03  0.00000000000E+00 0.  1.
         21    1    1    2  503  501  0.78131771013E+02 -0.92876692191E+01  0.22884252582E+03  0.24199119005E+03  0.00000000000E+00 0.  1.
         21    1    1    2  504  502 -0.62847659010E+02 -0.10689929551E+03 -0.13756931723E+03  0.18520962358E+03  0.00000000000E+00 0.  1.
         21    1    1    2  505  504 -0.51437005978E+02  0.23922501334E+02  0.47568868565E+02  0.74032755660E+02  0.00000000000E+00 0.  1.
         21    1    1    2  506  503  0.36152893975E+02  0.92264463394E+02  0.18333401682E+03  0.20840135478E+03  0.00000000000E+00 0.  1.
<scales pt_clust_3="51.61679" pt_clust_4="14000.00000" pt_clust_5="56.72787" pt_clust_6="121.18212"></scales>
<clustering>
<clus scale="   56.728">  1  5  2 -1</clus>
<clus scale="   51.617">  1  3  2 -1</clus>
<clus scale="  121.182">  1  6  2 -1</clus>
<clus scale="   56.728">  1  3  2 -1</clus>
</clustering>
</event>
<event>
 6    0  0.1555973E+002  0.1066142E+03  0.7546771E-02  0.1266972E+00
         21   -1    0    0  504  501  0.00000000000E+00  0.00000000000E+00  0.10596845689E+03  0.10596845689E+03  0.00000000000E+00 0.  1.
         21   -1    0    0  506  502 -0.00000000000E+00 -0.00000000000E+00 -0.16994909718E+03  0.16994909718E+03  0.00000000000E+00 0.  1.
         21    1    1    2  503  502  0.35467931549E+02 -0.20470962430E+02 -0.28703941342E+02  0.50009506294E+02  0.00000000000E+00 0.  1.
         21    1    1    2  504  505 -0.18317154819E+02 -0.40477498214E+02  0.12942700508E+01  0.44447960102E+02  0.00000000000E+00 0.  1.
         21    1    1    2  505  503  0.15690460741E+02 -0.54194921646E+02 -0.23111488060E+02  0.60970656637E+02  0.00000000000E+00 0.  1.
         21    1    1    2  506  501 -0.32841237471E+02  0.11514338229E+03 -0.13459480945E+02  0.12048943103E+03  0.00000000000E+00 0.  1.
<scales pt_clust_3="32.32474" pt_clust_4="44.42911" pt_clust_5="32.32474" pt_clust_6="99.63432"></scales>
<clustering>
<clus scale="   32.325">  3  5 -1 -1</clus>
<clus scale="   44.429">  1  4  2 -1</clus>
<clus scale="   99.634">  1  6  2 -1</clus>
<clus scale="   44.429">  1  3  2 -1</clus>
</clustering>
</event>
<event>
 6    0  0.1555973E+002  0.1099020E+03  0.7546771E-02  0.1260752E+00
         21   -1    0    0  506  501  0.00000000000E+00  0.00000000000E+00  0.41916357675E+03  0.41916357675E+03  0.00000000000E+00 0. -1.
         21   -1    0    0  504  502 -0.00000000000E+00 -0.00000000000E+00 -0.19642228210E+03  0.19642228210E+03  0.00000000000E+00 0. -1.
         21    1    1    2  503  505  0.85509509933E+02 -0.57355186556E+02  0.12195554754E+03  0.15960779834E+03  0.00000000000E+00 0. -1.
         21    1    1    2  504  501 -0.90748627869E+02  0.69617640230E+02  0.21851834790E+03  0.24664184085E+03  0.00000000000E+00 0. -1.
         21    1    1    2  505  502 -0.98996885388E+01 -0.44214078614E+02 -0.15289765569E+03  0.15946968896E+03  0.00000000000E+00 0. -1.
         21    1    1    2  506  503  0.15138806475E+02  0.31951624939E+02  0.35165054903E+02  0.49866530700E+02  0.00000000000E+00 0. -1.
<scales pt_clust_3="109.90198" pt_clust_4="14000.00000" pt_clust_5="45.00798" pt_clust_6="35.35661"></scales>
<clustering>
<clus scale="   35.357">  1  6  2 -1</clus>
<clus scale="   45.008">  2  5  1 -1</clus>
<clus scale="  109.902">  2  3  1 -1</clus>
<clus scale="   35.357">  1  3  2 -1</clus>
</clustering>
</event>
<event>
 6    0  0.1555973E+002  0.1228515E+03  0.7546771E-02  0.1238466E+00
         21   -1    0    0  506  501  0.00000000000E+00  0.00000000000E+00  0.25562501151E+03  0.25562501151E+03  0.00000000000E+00 0.  1.
         21   -1    0    0  501  502 -0.00000000000E+00 -0.00000000000E+00 -0.58380854660E+03  0.58380854660E+03  0.00000000000E+00 0. -1.
         21    1    1    2  503  504 -0.22808407310E+02 -0.40605602787E+02  0.23345780749E+02  0.52096678402E+02  0.00000000000E+00 0.  1.
         21    1    1    2  504  505  0.11924819071E+03  0.81203965345E+02  0.11025718790E+03  0.18157880509E+03  0.00000000000E+00 0.  1.
         21    1    1    2  505  502 -0.44197366083E+02 -0.25736501976E+02 -0.52209617630E+03  0.52459526495E+03  0.00000000000E+00 0. -1.
         21    1    1    2  506  503 -0.52242417316E+02 -0.14861860583E+02  0.60309672565E+02  0.81162809660E+02  0.00000000000E+00 0.  1.
<scales pt_clust_3="41.93199" pt_clust_4="114.20113" pt_clust_5="51.14464" pt_clust_6="41.93199"></scales>
<clustering>
<clus scale="   41.932">  3  6 -1 -1</clus>
<clus scale="   51.145">  2  5  1 -1</clus>
<clus scale="  114.201">  2  4  1 -1</clus>
<clus scale="  122.851">  1  3  2 -1</clus>
</clustering>
</event>
<event>
 6    0  0.1555973E+002  0.6681821E+02  0.7546771E-02  0.1371260E+00
         21   -1    0    0  504  501  0.00000000000E+00  0.00000000000E+00  0.16948060263E+03  0.16948060263E+03  0.00000000000E+00 0. -1.
         21   -1    0    0  503  502 -0.00000000000E+00 -0.00000000000E+00 -0.20957590162E+03  0.20957590162E+03  0.00000000000E+00 0. -1.
         21    1    1    2  503  501  0.38691916623E+02  0.77602099685E+02 -0.81721551274E+01  0.87097269802E+02  0.00000000000E+00 0. -1.
         21    1    1    2  504  505 -0.59684439529E+02 -0.12836413784E+02  0.76571709464E+02  0.97929732620E+02  0.00000000000E+00 0. -1.
         21    1    1    2  505  506  0.57944906387E+02 -0.54806579969E+02 -0.82738816720E+00  0.79762509711E+02  0.00000000000E+00 0. -1.
         21    1    1    2  506  502 -0.36952383481E+02 -0.99591059316E+01 -0.10766746515E+03  0.11426699212E+03  0.00000000000E+00 0. -1.
<scales pt_clust_3="14000.00000" pt_clust_4="65.18870" pt_clust_5="66.81821" pt_clust_6="38.27091"></scales>
<clustering>
<clus scale="   38.271">  2  6  1 -1</clus>
<clus scale="   65.189">  1  4  2 -1</clus>
<clus scale="   66.818">  1  5  2 -1</clus>
<clus scale="   65.189">  1  3  2 -1</clus>
</clustering>
</event>
<event>
 6    0  0.1555973E+002  0.8915006E+02  0.7546771E-02  0.1304923E+00
         21   -1    0    0  505  501  0.00000000000E+00  0.00000000000E+00  0.68761432630E+03  0.68761432630E+03  0.00000000000E+00 0.  1.
         21   -1    0    0  503  502 -0.00000000000E+00 -0.00000000000E+00 -0.10573537163E+03  0.10573537163E+03  0.00000000000E+00 0.  1.
         21    1    1    2  503  506 -0.13155227979E+02  0.80626630757E+02  0.80925083393E+02  0.11498948966E+03  0.00000000000E+00 0.  1.
         21    1    1    2  504  502 -0.10581825608E+02 -0.63012350056E+02 -0.64792845053E+02  0.90998044280E+02  0.00000000000E+00 0.  1.
         21    1    1    2  505  504  0.69059966981E+01 -0.72369888105E+02  0.47150327187E+03  0.47707486716E+03  0.00000000000E+00 0.  1.
         21    1    1    2  506  501  0.16831056889E+02  0.54755607403E+02  0.94243444453E+02  0.11028729682E+03  0.00000000000E+00 0.  1.
<scales pt_clust_3="34.76664" pt_clust_4="63.89469" pt_clust_5="78.89219" pt_clust_6="34.76664"></scales>
<clustering>
<clus scale="   34.767">  3  6 -1 -1</clus>
<clus scale="   63.895">  2  4  1 -1</clus>
<clus scale="   78.892">  1  5  2 -1</clus>
<clus scale="   78.892">  1  3  2 -1</clus>
</clustering>
</event>
<event>
 6    0  0.1555973E+002  0.7049322E+02  0.7546771E-02  0.1358424E+00
         21   -1    0    0  504  501  0.00000000000E+00  0.00000000000E+00  0.11705841288E+03  0.11705841288E+03  0.00000000000E+00 0.  1.
         21   -1    0    0  503  502 -0.00000000000E+00 -0.00000000000E+00 -0.35000308696E+03  0.35000308696E+03  0.00000000000E+00 0.  1.
         21    1    1    2  503  505  0.46966840920E+02  0.38117624234E+02  0.27600874907E+02  0.66487936641E+02  0.00000000000E+00 0.  1.
         21    1    1    2  504  506 -0.64470866666E+02 -0.85373739217E+02 -0.48308602193E+02  0.11738351265E+03  0.00000000000E+00 0.  1.
         21    1    1    2  505  501 -0.42401949989E+02  0.17888775287E+02  0.13370940692E+02  0.47924061797E+02  0.00000000000E+00 0.  1.
         21    1    1    2  506  502  0.59905975735E+02  0.29367339696E+02 -0.22560788748E+03  0.23526598875E+03  0.00000000000E+00 0.  1.
<scales pt_clust_3="53.48479" pt_clust_4="14000.00000" pt_clust_5="46.02101" pt_clust_6="70.49322"></scales>
<clustering>
<clus scale="   46.021">  1  5  2 -1</clus>
<clus scale="   53.485">  1  3  2 -1</clus>
<clus scale="   70.493">  2  6  1 -1</clus>
<clus scale="   46.021">  1  3  2 -1</clus>
</clustering>
</event>
<event>
 6    0  0.1555973E+002  0.1754578E+03  0.7546771E-02  0.1172273E+00
         21   -1    0    0  503  501  0.00000000000E+00  0.00000000000E+00  0.84986042535E+02  0.84986042535E+02  0.00000000000E+00 0.  1.
         21   -1    0    0  504  502 -0.00000000000E+00 -0.00000000000E+00 -0.52690280095E+03  0.52690280095E+03  0.00000000000E+00 0.  1.
         21    1    1    2  503  505  0.30326871513E+02 -0.16874306393E+02  0.13778371091E+02  0.37340391829E+02  0.00000000000E+00 0.  1.
         21    1    1    2  504  506  0.87186250844E+02  0.69774126058E+00 -0.11569914538E+03  0.14487312180E+03  0.00000000000E+00 0.  1.
         21    1    1    2  505  502 -0.18398211170E+03  0.20243334749E+02 -0.29844681232E+03  0.35118329945E+03  0.00000000000E+00 0.  1.
         21    1    1    2  506  501  0.66468989344E+02 -0.40667696168E+01 -0.41549171811E+02  0.78492030409E+02  0.00000000000E+00 0.  1.
<scales pt_clust_3="34.70535" pt_clust_4="34.33698" pt_clust_5="171.00219" pt_clust_6="34.33698"></scales>
<clustering>
<clus scale="   34.337">  4  6 -1 -1</clus>
<clus scale="   34.705">  1  3  2 -1</clus>
<clus scale="  171.002">  2  5  1 -1</clus>
<clus scale="   34.705">  1  3  2 -1</clus>
</clustering>
</event>
<event>
 6    0  0.1555973E+002  0.4292234E+03  0.7546771E-02  0.1034106E+00
         21   -1    0    0  502  501  0.00000000000E+00  0.00000000000E+00  0.54677480089E+03  0.54677480089E+03  0.00000000000E+00 0.  1.
         21   -1    0    0  506  502 -0.00000000000E+00 -0.00000000000E+00 -0.12113359674E+04  0.12113359674E+04  0.00000000000E+00 0. -1.
         21    1    1    2  503  501 -0.42069479265E+03  0.39105772686E+02  0.28785724006E+03  0.51124862902E+03  0.00000000000E+00 0.  1.
         21    1    1    2  504  503  0.34949301834E+03 -0.32290427124E+02 -0.13914941751E+03  0.37755873973E+03  0.00000000000E+00 0.  1.
         21    1    1    2  505  504  0.79077692030E+02  0.25041821142E+02 -0.34489194596E+02  0.89832503732E+02  0.00000000000E+00 0. -1.
         21    1    1    2  506  505 -0.78759177139E+01 -0.31857166704E+02 -0.77877979450E+03  0.77947089585E+03  0.00000000000E+00 0. -1.
<scales pt_clust_3="423.85602" pt_clust_4="32.53496" pt_clust_5="32.53496" pt_clust_6="32.81629"></scales>
<clustering>
<clus scale="   32.816">  2  6  1 -1</clus>
<clus scale="   32.535">  4  5 -1 -1</clus>
<clus scale="  423.856">  1  3  2 -1</clus>
<clus scale="  423.856">  1  3  2 -1</clus>
</clustering>
</event>
<event>
 6    0  0.1555973E+002  0.1035652E+03  0.7546771E-02  0.1272973E+00
         21   -1    0    0  503  501  0.00000000000E+00  0.00000000000E+00  0.21678267074E+03  0.21678267074E+03  0.00000000000E+00 0. -1.
         21   -1    0    0  504  502 -0.00000000000E+00 -0.00000000000E+00 -0.24055769193E+04  0.24055769193E+04  0.00000000000E+00 0.  1.
         21    1    1    2  503  502  0.31664750052E+02  0.20831214143E+02 -0.20054492371E+02  0.42880981131E+02  0.00000000000E+00 0. -1.
         21    1    1    2  504  506  0.28462643775E+02 -0.99669186048E+02 -0.23409285794E+04  0.23432222862E+04  0.00000000000E+00 0.  1.
         21    1    1    2  505  501  0.38771147422E+02  0.12799886132E+02  0.28769007701E+02  0.49946919440E+02  0.00000000000E+00 0. -1.
         21    1    1    2  506  505 -0.98898541249E+02  0.66038085772E+02  0.14341981556E+03  0.18630940322E+03  0.00000000000E+00 0. -1.
<scales pt_clust_3="37.90245" pt_clust_4="14000.00000" pt_clust_5="47.88066" pt_clust_6="103.56518"></scales>
<clustering>
<clus scale="   37.902">  1  3  2 -1</clus>
<clus scale="   47.881">  1  5  2 -1</clus>
<clus scale="  103.565">  1  6  2 -1</clus>
<clus scale="   37.902">  1  3  2 -1</clus>
</clustering>
</event>
<event>
 6    0  0.1555973E+002  0.1644527E+03  0.7546771E-02  0.1183759E+00
         21   -1    0    0  505  501  0.00000000000E+00  0.00000000000E+00  0.34693476377E+03  0.34693476377E+03  0.00000000000E+00 0. -1.
         21   -1    0    0  504  502 -0.00000000000E+00 -0.00000000000E+00 -0.44964472539E+03  0.44964472539E+03  0.00000000000E+00 0. -1.
         21    1    1    2  503  501 -0.16407975772E+02 -0.65287775025E+02  0.17858759585E+03  0.19085398772E+03  0.00000000000E+00 0. -1.
         21    1    1    2  504  503 -0.76546371778E+02 -0.10939127193E+03  0.12576906146E+02  0.13410434734E+03  0.00000000000E+00 0. -1.
         21    1    1    2  505  506  0.47226841982E+02  0.58708746860E+01  0.60181882882E+02  0.76724838224E+02  0.00000000000E+00 0. -1.
         21    1    1    2  506  502  0.45727505567E+02  0.16880817227E+03 -0.35405634651E+03  0.39489631588E+03  0.00000000000E+00 0. -1.
<scales pt_clust_3="63.18007" pt_clust_4="164.45270" pt_clust_5="47.59035" pt_clust_6="14000.00000"></scales>
<clustering>
<clus scale="   47.590">  1  5  2 -1</clus>
<clus scale="   63.180">  1  3  2 -1</clus>
<clus scale="  164.453">  1  4  2 -1</clus>
<clus scale="   47.590">  1  3  2 -1</clus>
</clustering>
</event>
<event>
 6    0  0.1555973E+002  0.9728837E+02  0.7546771E-02  0.1286104E+00
         21   -1    0    0  506  501  0.00000000000E+00  0.00000000000E+00  0.40587746624E+03  0.40587746624E+03  0.00000000000E+00 0. -1.
         21   -1    0    0  505  502 -0.00000000000E+00 -0.00000000000E+00 -0.37886203305E+03  0.37886203305E+03  0.00000000000E+00 0.  1.
         21    1    1    2  503  501  0.22542762265E+02  0.24637716768E+02  0.54293764312E+02  0.63741713668E+02  0.00000000000E+00 0. -1.
         21    1    1    2  504  503  0.74885216397E+02 -0.70436954019E+01  0.30360605762E+03  0.31278434664E+03  0.00000000000E+00 0. -1.
         21    1    1    2  505  504  0.25137791185E+02  0.45538672562E+02 -0.25171412883E+01  0.52077012632E+02  0.00000000000E+00 0.  1.
         21    1    1    2  506  502 -0.12256576985E+03 -0.63132693928E+02 -0.32836724745E+03  0.35613642636E+03  0.00000000000E+00 0.  1.
<scales pt_clust_3="33.39451" pt_clust_4="97.28837" pt_clust_5="54.33827" pt_clust_6="14000.00000"></scales>
<clustering>
<clus scale="   33.395">  1  3  2 -1</clus>
<clus scale="   54.338">  2  5  1 -1</clus>
<clus scale="   97.288">  1  4  2 -1</clus>
<clus scale="   33.395">  1  3  2 -1</clus>
</clustering>
</event>
<event>
 6    0  0.1555973E+002  0.8773015E+02  0.7546771E-02  0.1308443E+00
         21   -1    0    0  503  501  0.00000000000E+00  0.00000000000E+00  0.35064749046E+03  0.35064749046E+03  0.00000000000E+00 0.  1.
         21   -1    0    0  506  502 -0.00000000000E+00 -0.00000000000E+00 -0.24927350570E+03  0.24927350570E+03  0.00000000000E+00 0.  1.
         21    1    1    2  503  502 -0.43197429442E+02  0.69832379294E+02  0.14373699528E+03  0.16553822193E+03  0.00000000000E+00 0.  1.
         21    1    1    2  504  501  0.29662361467E+02 -0.93973278562E+02  0.12025472570E+03  0.15547357275E+03  0.00000000000E+00 0.  1.
         21    1    1    2  505  504  0.31540867141E+02  0.61356505612E+02  0.34758058873E+02  0.77250046845E+02  0.00000000000E+00 0. -1.
         21    1    1    2  506  505 -0.18005799166E+02 -0.37215606344E+02 -0.19737579509E+03  0.20165915463E+03  0.00000000000E+00 0.  1.
<scales pt_clust_3="14000.00000" pt_clust_4="87.73015" pt_clust_5="51.34227" pt_clust_6="41.34259"></scales>
<clustering>
<clus scale="   41.343">  2  6  1 -1</clus>
<clus scale="   51.342">  2  5  1 -1</clus>
<clus scale="   87.730">  2  4  1 -1</clus>
<clus scale="   87.730">  1  3  2 -1</clus>
</clustering>
</event>
<event>
 6    0  0.1555973E+002  0.1192114E+03  0.7546771E-02  0.1244404E+00
         21   -1    0    0  506  501  0.00000000000E+00  0.00000000000E+00  0.25820697120E+03  0.25820697120E+03  0.00000000000E+00 0. -1.
         21   -1    0    0  504  502 -0.00000000000E+00 -0.00000000000E+00 -0.22473853502E+03  0.22473853502E+03  0.00000000000E+00 0. -1.
         21    1    1    2  503  505  0.64290976682E+02  0.38332238453E+02  0.63901308417E+02  0.98417820566E+02  0.00000000000E+00 0. -1.
         21    1    1    2  504  503 -0.10505291387E+03  0.21695963057E+02 -0.16963478661E+03  0.20070573074E+03  0.00000000000E+00 0. -1.
         21    1    1    2  505  501  0.44412799609E+02  0.29922912497E+01  0.10013958216E+03  0.10958734640E+03  0.00000000000E+00 0. -1.
         21    1    1    2  506  502 -0.36508624263E+01 -0.63020492760E+02  0.39062332210E+02  0.74234608518E+02  0.00000000000E+00 0. -1.
<scales pt_clust_3="41.04235" pt_clust_4="106.67171" pt_clust_5="41.04235" pt_clust_6="63.12615"></scales>
<clustering>
<clus scale="   41.042">  3  5 -1 -1</clus>
<clus scale="   63.126">  1  6  2 -1</clus>
<clus scale="  106.672">  2  4  1 -1</clus>
<clus scale="   63.126">  1  3  2 -1</clus>
</clustering>
</event>
<event>
 6    0  0.1555973E+002  0.7831349E+02  0.7546771E-02  0.1333907E+00
         21   -1    0    0  504  501  0.00000000000E+00  0.00000000000E+00  0.52694537449E+03  0.52694537449E+03  0.00000000000E+00 0. -1.
         21   -1    0    0  503  502 -0.00000000000E+00 -0.00000000000E+00 -0.44190092525E+02  0.44190092525E+02  0.00000000000E+00 0. -1.
         21    1    1    2  503  506 -0.49467779007E+01 -0.53169326595E+02  0.76777484543E+02  0.93521281187E+02  0.00000000000E+00 0. -1.
         21    1    1    2  504  505 -0.19671626327E+02  0.80212133374E+02  0.19728870934E+03  0.21387798872E+03  0.00000000000E+00 0. -1.
         21    1    1    2  505  502 -0.65019986215E+02 -0.29772236229E+02  0.96470945910E+02  0.12008591950E+03  0.00000000000E+00 0. -1.
         21    1    1    2  506  501  0.89638390443E+02  0.27294294493E+01  0.11221814217E+03  0.14365027762E+03  0.00000000000E+00 0. -1.
<scales pt_clust_3="53.39895" pt_clust_4="71.01888" pt_clust_5="78.31349" pt_clust_6="14000.00000"></scales>
<clustering>
<clus scale="   53.399">  2  3  1 -1</clus>
<clus scale="   71.019">  1  4  2 -1</clus>
<clus scale="   78.313">  1  5  2 -1</clus>
<clus scale="   71.019">  1  3  2 -1</clus>
</clustering>
</event>
<event>
 6    0  0.1555973E+002  0.1373956E+03  0.7546771E-02  0.1216877E+00
         21   -1    0    0  503  501  0.00000000000E+00  0.00000000000E+00  0.68263614312E+03  0.68263614312E+03  0.00000000000E+00 0. -1.
         21   -1    0    0  505  502 -0.00000000000E+00 -0.00000000000E+00 -0.19761024205E+03  0.19761024205E+03  0.00000000000E+00 0.  1.
         21    1    1    2  503  504 -0.51506052356E+02  0.26339843323E+02  0.64541298972E+02  0.86673179523E+02  0.00000000000E+00 0.  1.
         21    1    1    2  504  506  0.18455376523E+01  0.14836320847E+03  0.37169604333E+03  0.40021618690E+03  0.00000000000E+00 0. -1.
         21    1    1    2  505  501  0.74927793334E+02 -0.40325403356E+02  0.18296724322E+03  0.20178534253E+03  0.00000000000E+00 0.  1.
         21    1    1    2  506  502 -0.25267278631E+02 -0.13437764843E+03 -0.13417868445E+03  0.19157167621E+03  0.00000000000E+00 0.  1.
<scales pt_clust_3="57.85033" pt_clust_4="14000.00000" pt_clust_5="66.76157" pt_clust_6="137.39565"></scales>
<clustering>
<clus scale="   57.850">  1  3  2 -1</clus>
<clus scale="   66.762">  1  5  2 -1</clus>
<clus scale="  137.396">  2  6  1 -1</clus>
<clus scale="   57.850">  1  3  2 -1</clus>
</clustering>
</event>
<event>
 6    0  0.1555973E+002  0.1324677E+03  0.7546771E-02  0.1223839E+00
         21   -1    0    0  505  501  0.00000000000E+00  0.00000000000E+00  0.33602166272E+03  0.33602166272E+03  0.00000000000E+00 0. -1.
         21   -1    0    0  506  502 -0.00000000000E+00 -0.00000000000E+00 -0.11657760963E+04  0.11657760963E+04  0.00000000000E+00 0.  1.
         21    1    1    2  503  501  0.85213498662E+02  0.72337931135E+02  0.16802966684E+03  0.20181200552E+03  0.00000000000E+00 0. -1.
         21    1    1    2  504  502 -0.32010865297E+02 -0.48098170085E+02  0.15410397729E+02  0.59796403075E+02  0.00000000000E+00 0.  1.
         21    1    1    2  505  504 -0.77312881911E+02 -0.68528395192E+02  0.89290862712E+02  0.13655138528E+03  0.00000000000E+00 0. -1.
         21    1    1    2  506  503  0.24110248547E+02  0.44288634142E+02 -0.11024853608E+04  0.11036379651E+04  0.00000000000E+00 0.  1.
<scales pt_clust_3="124.54333" pt_clust_4="33.74888" pt_clust_5="33.74888" pt_clust_6="50.42606"></scales>
<clustering>
<clus scale="   33.749">  4  5 -1 -1</clus>
<clus scale="   50.426">  2  6  1 -1</clus>
<clus scale="  124.543">  1  3  2 -1</clus>
<clus scale="  124.543">  1  3  2 -1</clus>
</clustering>
</event>
<event>
 6    0  0.2605450E+002  0.1152397E+03  0.7546771E-02  0.1251163E+00
         21   -1    0    0  503  501  0.00000000000E+00  0.00000000000E+00  0.22447553923E+03  0.22447553923E+03  0.00000000000E+00 0.  1.
         21   -1    0    0  506  502 -0.00000000000E+00 -0.00000000000E+00 -0.80717943927E+03  0.80717943927E+03  0.00000000000E+00 0.  1.
         21    1    1    2  503  502  0.29993719716E+02  0.89326758703E+00 -0.50862977775E+02  0.59054751354E+02  0.00000000000E+00 0.  1.
         21    1    1    2  504  505  0.42455764945E+02  0.74482245175E+02 -0.76137260865E+02  0.11466027784E+03  0.00000000000E+00 0.  1.
         21    1    1    2  505  501 -0.10402123208E+03 -0.65311498407E+02  0.18189501571E+03  0.21948076291E+03  0.00000000000E+00 0.  1.
         21    1    1    2  506  504  0.31571747422E+02 -0.10064014354E+02 -0.63759867711E+03  0.63845918638E+03  0.00000000000E+00 0.  1.
<scales pt_clust_3="30.00702" pt_clust_4="14000.00000" pt_clust_5="115.23974" pt_clust_6="57.76680"></scales>
<clustering>
<clus scale="   30.007">  2  3  1 -1</clus>
<clus scale="   57.767">  2  6  1 -1</clus>
<clus scale="  115.240">  1  5  2 -1</clus>
<clus scale="  115.240">  1  3  2 -1</clus>
</clustering>
</event>
<event>
 6    0  0.1555973E+002  0.9802026E+02  0.7546771E-02  0.1284515E+00
         21   -1    0    0  504  501  0.00000000000E+00  0.00000000000E+00  0.13044103236E+02  0.13044103236E+02  0.00000000000E+00 0. -1.
         21   -1    0    0  505  502 -0.00000000000E+00 -0.00000000000E+00 -0.21515088512E+04  0.21515088512E+04  0.00000000000E+00 0.  1.
         21    1    1    2  503  502 -0.32946585891E+02 -0.44912641225E+01 -0.26782772350E+03  0.26988393514E+03  0.00000000000E+00 0.  1.
         21    1    1    2  504  506 -0.10112765437E+03  0.26409724936E+02 -0.33596612100E+03  0.35184870400E+03  0.00000000000E+00 0. -1.
         21    1    1    2  505  501  0.81362133959E+02  0.14525754744E+02 -0.11388779347E+04  0.11418729109E+04  0.00000000000E+00 0.  1.
         21    1    1    2  506  503  0.52712106301E+02 -0.36444215558E+02 -0.39579296881E+03  0.40094740447E+03  0.00000000000E+00 0. -1.
<scales pt_clust_3="33.25130" pt_clust_4="14000.00000" pt_clust_5="98.02026" pt_clust_6="59.08093"></scales>
<clustering>
<clus scale="   33.251">  2  3  1 -1</clus>
<clus scale="   59.081">  2  6  1 -1</clus>
<clus scale="   98.020">  2  5  1 -1</clus>
<clus scale="   98.020">  1  3  2 -1</clus>
</clustering>
</event>
<event>
 6    0  0.1555973E+002  0.9126518E+02  0.7546771E-02  0.1299816E+00
         21   -1    0    0  503  501  0.00000000000E+00  0.00000000000E+00  0.12374503012E+03  0.12374503012E+03  0.00000000000E+00 0. -1.
         21   -1    0    0  505  502 -0.00000000000E+00 -0.00000000000E+00 -0.34890571469E+03  0.34890571469E+03  0.00000000000E+00 0. -1.
         21    1    1    2  503  502  0.72183763779E+02 -0.64066717953E+02 -0.89867273817E+02  0.13187557396E+03  0.00000000000E+00 0.  1.
         21    1    1    2  504  501 -0.52670598157E+02  0.73622983027E+02  0.57373005647E+02  0.10717367828E+03  0.00000000000E+00 0. -1.
         21    1    1    2  505  506  0.24069060681E+02 -0.18430927746E+02 -0.18620660232E+03  0.18865820291E+03  0.00000000000E+00 0. -1.
         21    1    1    2  506  504 -0.43582226303E+02  0.88746626721E+01 -0.64598140884E+01  0.44943289657E+02  0.00000000000E+00 0.  1.
<scales pt_clust_3="14000.00000" pt_clust_4="91.26518" pt_clust_5="30.31532" pt_clust_6="40.19268"></scales>
<clustering>
<clus scale="   30.315">  2  5  1 -1</clus>
<clus scale="   40.193">  2  6  1 -1</clus>
<clus scale="   91.265">  1  4  2 -1</clus>
<clus scale="   91.265">  1  3  2 -1</clus>
</clustering>
</event>
<event>
 6    0  0.1555973E+002  0.9512420E+02  0.7546771E-02  0.1290897E+00
         21   -1    0    0  504  501  0.00000000000E+00  0.00000000000E+00  0.42044863331E+03  0.42044863331E+03  0.00000000000E+00 0.  1.
         21   -1    0    0  506  502 -0.00000000000E+00 -0.00000000000E+00 -0.12103408790E+03  0.12103408790E+03  0.00000000000E+00 0.  1.
         21    1    1    2  503  501  0.16638043601E+02 -0.36617830995E+02  0.25790054318E+03  0.26101796914E+03  0.00000000000E+00 0.  1.
         21    1    1    2  504  505  0.36506225310E+02  0.21337590017E+02  0.53976836056E+02  0.68567456309E+02  0.00000000000E+00 0.  1.
         21    1    1    2  505  502 -0.25601605641E+02  0.99594619461E+02 -0.51476778649E+02  0.11499734422E+03  0.00000000000E+00 0.  1.
         21    1    1    2  506  503 -0.27542663270E+02 -0.84314378483E+02  0.39013944833E+02  0.96899951550E+02  0.00000000000E+00 0.  1.
<scales pt_clust_3="40.22052" pt_clust_4="43.47323" pt_clust_5="95.12420" pt_clust_6="14000.00000"></scales>
<clustering>
<clus scale="   40.221">  1  3  2 -1</clus>
<clus scale="   43.473">  1  4  2 -1</clus>
<clus scale="   95.124">  2  5  1 -1</clus>
<clus scale="   40.221">  1  3  2 -1</clus>
</clustering>
</event>
<event>
 6    0  0.1555973E+002  0.1496649E+03  0.7546771E-02  0.1200885E+00
         21   -1    0    0  506  501  0.00000000000E+00  0.00000000000E+00  0.14032731669E+03  0.14032731669E+03  0.00000000000E+00 0.  1.
         21   -1    0    0  504  502 -0.00000000000E+00 -0.00000000000E+00 -0.38224003724E+03  0.38224003724E+03  0.00000000000E+00 0.  1.
         21    1    1    2  503  505 -0.11164668652E+03  0.66253299752E+02  0.30040431169E+02  0.13325505561E+03  0.00000000000E+00 0.  1.
         21    1    1    2  504  501  0.15609823057E+03 -0.62131041674E+02 -0.24312205710E+03  0.29552539413E+03  0.00000000000E+00 0.  1.
         21    1    1    2  505  502 -0.55071556047E+01  0.30009411550E+02 -0.28867038081E+02  0.42002374123E+02  0.00000000000E+00 0. -1.
         21    1    1    2  506  503 -0.38944388446E+02 -0.34131669628E+02  0.35943465514E-01  0.51784530073E+02  0.00000000000E+00 0.  1.
<scales pt_clust_3="14000.00000" pt_clust_4="149.66491" pt_clust_5="30.51055" pt_clust_6="50.65554"></scales>
<clustering>
<clus scale="   30.511">  2  5  1 -1</clus>
<clus scale="   50.656">  1  6  2 -1</clus>
<clus scale="  149.665">  2  4  1 -1</clus>
<clus scale="   50.656">  1  3  2 -1</clus>
</clustering>
</event>
<event>
 6    0  0.1555973E+002  0.7759933E+02  0.7546771E-02  0.1336006E+00
         21   -1    0    0  504  501  0.00000000000E+00  0.00000000000E+00  0.87439864260E+02  0.87439864260E+02  0.00000000000E+00 0. -1.
         21   -1    0    0  506  502 -0.00000000000E+00 -0.00000000000E+00 -0.10040525142E+04  0.10040525142E+04  0.00000000000E+00 0.  1.
         21    1    1    2  503  501  0.27303975052E+01 -0.42478872590E+02  0.18289873853E+02  0.46329571254E+02  0.00000000000E+00 0. -1.
         21    1    1    2  504  502  0.34343778309E+02  0.70289988839E+02 -0.87702383504E+03  0.88050609587E+03  0.00000000000E+00 0.  1.
         21    1    1    2  505  503 -0.26736081028E+02  0.46867252759E+02  0.18785851661E+02  0.57133752131E+02  0.00000000000E+00 0. -1.
         21    1    1    2  506  505 -0.10338094787E+02 -0.74678369009E+02 -0.76664540457E+02  0.10752295925E+03  0.00000000000E+00 0. -1.
<scales pt_clust_3="42.56653" pt_clust_4="14000.00000" pt_clust_5="30.46694" pt_clust_6="77.59933"></scales>
<clustering>
<clus scale="   42.567">  1  3  2 -1</clus>
<clus scale="   30.467">  1  5  2 -1</clus>
<clus scale="   77.599">  1  6  2 -1</clus>
<clus scale="   42.567">  1  3  2 -1</clus>
</clustering>
</event>
<event>
 6    0  0.1555973E+002  0.1384079E+03  0.7546771E-02  0.1215487E+00
         21   -1    0    0  503  501  0.00000000000E+00  0.00000000000E+00  0.12548111351E+03  0.12548111351E+03  0.00000000000E+00 0.  1.
         21   -1    0    0  506  502 -0.00000000000E+00 -0.00000000000E+00 -0.17947080339E+04  0.17947080339E+04  0.00000000000E+00 0. -1.
         21    1    1    2  503  502 -0.46515943109E+02  0.18894386869E+01 -0.45064054654E+02  0.64792530154E+02  0.00000000000E+00 0.  1.
         21    1    1    2  504  505  0.56669472264E+02  0.80333885946E+02  0.52126075143E+02  0.11127484005E+03  0.00000000000E+00 0.  1.
         21    1    1    2  505  501  0.68850939899E+02  0.33174504485E+02 -0.16164553485E+02  0.78117171366E+02  0.00000000000E+00 0.  1.
         21    1    1    2  506  504 -0.79004469055E+02 -0.11539782912E+03 -0.16601243874E+04  0.16660046059E+04  0.00000000000E+00 0. -1.
<scales pt_clust_3="46.55430" pt_clust_4="14000.00000" pt_clust_5="65.68128" pt_clust_6="138.40792"></scales>
<clustering>
<clus scale="   46.554">  1  3  2 -1</clus>
<clus scale="   65.681">  1  5  2 -1</clus>
<clus scale="  138.408">  2  6  1 -1</clus>
<clus scale="   46.554">  1  3  2 -1</clus>
</clustering>
</event>
<event>
 6    0  0.1555973E+002  0.1173931E+03  0.7546771E-02  0.1247461E+00
         21   -1    0    0  503  501  0.00000000000E+00  0.00000000000E+00  0.20350616347E+04  0.20350616347E+04  0.00000000000E+00 0.  1.
         21   -1    0    0  506  502 -0.00000000000E+00 -0.00000000000E+00 -0.84151563420E+03  0.84151563420E+03  0.00000000000E+00 0.  1.
         21    1    1    2  503  504  0.42466868263E+02 -0.63983365830E+02  0.10976416950E+04  0.11003247687E+04  0.00000000000E+00 0.  1.
         21    1    1    2  504  502 -0.14833425394E+02 -0.33567904911E+02  0.62748661370E+03  0.62855889551E+03  0.00000000000E+00 0.  1.
         21    1    1    2  505  501 -0.63880051117E+02  0.12635015704E+03  0.29110307419E+03  0.32370669273E+03  0.00000000000E+00 0.  1.
         21    1    1    2  506  505  0.36246608248E+02 -0.28798886298E+02 -0.82268538246E+03  0.82398691189E+03  0.00000000000E+00 0.  1.
<scales pt_clust_3="35.86220" pt_clust_4="35.86220" pt_clust_5="105.30888" pt_clust_6="46.29463"></scales>
<clustering>
<clus scale="   35.862">  3  4 -1 -1</clus>
<clus scale="   46.295">  2  6  1 -1</clus>
<clus scale="  105.309">  2  5  1 -1</clus>
<clus scale="  117.393">  1  3  2 -1</clus>
</clustering>
</event>
<event>
 6    0  0.1555973E+002  0.1152204E+03  0.7546771E-02  0.1251197E+00
         21   -1    0    0  503  501  0.00000000000E+00  0.00000000000E+00  0.27255441146E+02  0.27255441146E+02  0.00000000000E+00 0. -1.
         21   -1    0    0  504  502 -0.00000000000E+00 -0.00000000000E+00 -0.15050413241E+04  0.15050413241E+04  0.00000000000E+00 0. -1.
         21    1    1    2  503  505  0.22441559288E+02  0.55453118037E+02 -0.68336517200E+02  0.90821536357E+02  0.00000000000E+00 0. -1.
         21    1    1    2  504  506 -0.36416866418E+02 -0.20607471365E+01 -0.91544924279E+03  0.91617561143E+03  0.00000000000E+00 0. -1.
         21    1    1    2  505  502  0.54418610894E+02  0.29800992726E+02 -0.80807144636E+02  0.10187874657E+03  0.00000000000E+00 0. -1.
         21    1    1    2  506  501 -0.40443303763E+02 -0.83193363627E+02 -0.41319297837E+03  0.42342087094E+03  0.00000000000E+00 0. -1.
<scales pt_clust_3="41.07541" pt_clust_4="36.47513" pt_clust_5="41.07541" pt_clust_6="107.52635"></scales>
<clustering>
<clus scale="   36.475">  2  4  1 -1</clus>
<clus scale="   41.075">  3  5 -1 -1</clus>
<clus scale="  107.526">  2  6  1 -1</clus>
<clus scale="  115.220">  1  3  2 -1</clus>
</clustering>
</event>
<event>
 6    0  0.1555973E+002  0.8527738E+02  0.7546771E-02  0.1314709E+00
         21   -1    0    0  505  501  0.00000000000E+00  0.00000000000E+00  0.18580133153E+03  0.18580133153E+03  0.00000000000E+00 0. -1.
         21   -1    0    0  504  502 -0.00000000000E+00 -0.00000000000E+00 -0.17615094142E+03  0.17615094142E+03  0.00000000000E+00 0. -1.
         21    1    1    2  503  502  0.32329934302E+02  0.52911595630E+02  0.68904786650E+02  0.92696986076E+02  0.00000000000E+00 0. -1.
         21    1    1    2  504  506 -0.33774317500E+02  0.12672950971E+02 -0.39996198252E+02  0.53860969946E+02  0.00000000000E+00 0. -1.
         21    1    1    2  505  503 -0.22619219670E+02  0.40086837121E+02  0.63927014605E+02  0.78773388940E+02  0.00000000000E+00 0. -1.
         21    1    1    2  506  501  0.24063602867E+02 -0.10567138372E+03 -0.83185212896E+02  0.13662092799E+03  0.00000000000E+00 0. -1.
<scales pt_clust_3="14000.00000" pt_clust_4="36.07365" pt_clust_5="47.63417" pt_clust_6="85.27738"></scales>
<clustering>
<clus scale="   36.074">  2  4  1 -1</clus>
<clus scale="   47.634">  1  5  2 -1</clus>
<clus scale="   85.277">  2  6  1 -1</clus>
<clus scale="   47.634">  1  3  2 -1</clus>
</clustering>
</event>
<event>
 6    0  0.1555973E+002  0.1132586E+03  0.7546771E-02  0.1254652E+00
         21   -1    0    0  504  501  0.00000000000E+00  0.00000000000E+00  0.10770680402E+04  0.10770680402E+04  0.00000000000E+00 0.  1.
         21   -1    0    0  505  502 -0.00000000000E+00 -0.00000000000E+00 -0.23160164489E+02  0.23160164489E+02  0.00000000000E+00 0.  1.
         21    1    1    2  503  501 -0.22491053265E+02 -0.43101024107E+02  0.43654832447E+03  0.43924706641E+03  0.00000000000E+00 0.  1.
         21    1    1    2  504  502 -0.96484005648E+02  0.46088987309E+01  0.18601617719E+03  0.20960062850E+03  0.00000000000E+00 0.  1.
         21    1    1    2  505  506  0.35631200482E+02  0.31493745002E+02  0.12231544334E+03  0.13123454614E+03  0.00000000000E+00 0.  1.
         21    1    1    2  506  503  0.83343858431E+02  0.69983803747E+01  0.30902793071E+03  0.32014596362E+03  0.00000000000E+00 0.  1.
<scales pt_clust_3="48.61631" pt_clust_4="103.81218" pt_clust_5="34.14536" pt_clust_6="34.14536"></scales>
<clustering>
<clus scale="   34.145">  5  6 -1 -1</clus>
<clus scale="   48.616">  1  3  2 -1</clus>
<clus scale="  103.812">  2  4  1 -1</clus>
<clus scale="   48.616">  1  3  2 -1</clus>
</clustering>
</event>
<event>
 6    0  0.1555973E+002  0.1078995E+03  0.7546771E-02  0.1264510E+00
         21   -1    0    0  506  501  0.00000000000E+00  0.00000000000E+00  0.12637566296E+03  0.12637566296E+03  0.00000000000E+00 0.  1.
         21   -1    0    0  503  502 -0.00000000000E+00 -0.00000000000E+00 -0.17167892398E+03  0.17167892398E+03  0.00000000000E+00 0.  1.
         21    1    1    2  503  505 -0.71246136738E+02  0.49919624610E+02 -0.13905416072E+02  0.88098476249E+02  0.00000000000E+00 0.  1.
         21    1    1    2  504  502  0.62309033939E+02 -0.13871929743E+02 -0.63841435669E+02  0.90280535297E+02  0.00000000000E+00 0.  1.
         21    1    1    2  505  501 -0.42034628960E+02 -0.21670449630E+02  0.44963618233E+02  0.65255232615E+02  0.00000000000E+00 0.  1.
         21    1    1    2  506  504  0.50971731759E+02 -0.14377245236E+02 -0.12520027522E+02  0.54420342779E+02  0.00000000000E+00 0.  1.
<scales pt_clust_3="100.82445" pt_clust_4="35.00242" pt_clust_5="47.29184" pt_clust_6="35.00242"></scales>
<clustering>
<clus scale="   35.002">  4  6 -1 -1</clus>
<clus scale="   47.292">  1  5  2 -1</clus>
<clus scale="  100.824">  1  3  2 -1</clus>
<clus scale="   47.292">  1  3  2 -1</clus>
</clustering>
</event>
<event>
 6    0  0.1555973E+002  0.8186320E+02  0.7546771E-02  0.1323846E+00
         21   -1    0    0  503  501  0.00000000000E+00  0.00000000000E+00  0.27325479057E+03  0.27325479057E+03  0.00000000000E+00 0.  1.
         21   -1    0    0  506  502 -0.00000000000E+00 -0.00000000000E+00 -0.14445738886E+04  0.14445738886E+04  0.00000000000E+00 0. -1.
         21    1    1    2  503  504  0.59462910659E+02  0.35268606155E+02  0.76177693618E+02  0.10287251007E+03  0.00000000000E+00 0.  1.
         21    1    1    2  504  502 -0.80159246849E+02  0.18626320309E+02 -0.13893292649E+04  0.13917644380E+04  0.00000000000E+00 0. -1.
         21    1    1    2  505  501  0.14175056881E+02  0.41085158774E+02 -0.94202360169E+01  0.44470927084E+02  0.00000000000E+00 0.  1.
         21    1    1    2  506  505  0.65212793091E+01 -0.94980085238E+02  0.15125270933E+03  0.17872080393E+03  0.00000000000E+00 0.  1.
<scales pt_clust_3="81.86320" pt_clust_4="14000.00000" pt_clust_5="43.46174" pt_clust_6="70.24288"></scales>
<clustering>
<clus scale="   43.462">  1  5  2 -1</clus>
<clus scale="   70.243">  1  6  2 -1</clus>
<clus scale="   81.863">  1  3  2 -1</clus>
<clus scale="   43.462">  1  3  2 -1</clus>
</clustering>
</event>
<event>
 6    0  0.1555973E+002  0.1000406E+03  0.7546771E-02  0.1280211E+00
         21   -1    0    0  504  501  0.00000000000E+00  0.00000000000E+00  0.36841872449E+02  0.36841872449E+02  0.00000000000E+00 0. -1.
         21   -1    0    0  505  502 -0.00000000000E+00 -0.00000000000E+00 -0.16923395357E+04  0.16923395357E+04  0.00000000000E+00 0. -1.
         21    1    1    2  503  501 -0.39418982714E+02 -0.83093168093E+02 -0.51381692812E+02  0.10534898736E+03  0.00000000000E+00 0. -1.
         21    1    1    2  504  506  0.42587851316E+02 -0.25922507374E+02 -0.86843852904E+02  0.10013768649E+03  0.00000000000E+00 0.  1.
         21    1    1    2  505  503  0.27211964749E+02  0.44511807050E+02 -0.31336925431E+03  0.31768235951E+03  0.00000000000E+00 0. -1.
         21    1    1    2  506  502 -0.30380833352E+02  0.64503868418E+02 -0.12039028632E+04  0.12060123748E+04  0.00000000000E+00 0. -1.
<scales pt_clust_3="100.04059" pt_clust_4="49.85681" pt_clust_5="52.29906" pt_clust_6="14000.00000"></scales>
<clustering>
<clus scale="   49.857">  1  4  2 -1</clus>
<clus scale="   52.299">  2  5  1 -1</clus>
<clus scale="  100.041">  1  3  2 -1</clus>
<clus scale="   49.857">  1  3  2 -1</clus>
</clustering>
</event>
<event>
 6    0  0.1555973E+002  0.1342800E+03  0.7546771E-02  0.1221240E+00
         21   -1    0    0  505  501  0.00000000000E+00  0.00000000000E+00  0.43598546801E+03  0.43598546801E+03  0.00000000000E+00 0. -1.
         21   -1    0    0  504  502 -0.00000000000E+00 -0.00000000000E+00 -0.47643057212E+03  0.47643057212E+03  0.00000000000E+00 0. -1.
         21    1    1    2  503  501  0.13206590606E+03  0.87935929495E+02  0.39191578915E+02  0.16343228291E+03  0.00000000000E+00 0. -1.
         21    1    1    2  504  503 -0.55441961316E+02  0.12077896328E+03 -0.34577141403E+03  0.37043115394E+03  0.00000000000E+00 0. -1.
         21    1    1    2  505  506 -0.94852120110E+02 -0.45908732745E+02  0.10570505828E+03  0.14925848645E+03  0.00000000000E+00 0. -1.
         21    1    1    2  506  502  0.18228175367E+02 -0.16280616004E+03  0.16042967272E+03  0.22929411683E+03  0.00000000000E+00 0. -1.
<scales pt_clust_3="124.46967" pt_clust_4="14000.00000" pt_clust_5="105.37806" pt_clust_6="134.27996"></scales>
<clustering>
<clus scale="  105.378">  1  5  2 -1</clus>
<clus scale="  124.470">  1  3  2 -1</clus>
<clus scale="  134.280">  1  6  2 -1</clus>
<clus scale="  105.378">  1  3  2 -1</clus>
</clustering>
</event>
<event>
 6    0  0.1555973E+002  0.1162710E+03  0.7546771E-02  0.1249379E+00
         21   -1    0    0  504  501  0.00000000000E+00  0.00000000000E+00  0.26252611903E+03  0.26252611903E+03  0.00000000000E+00 0.  1.
         21   -1    0    0  506  502 -0.00000000000E+00 -0.00000000000E+00 -0.67841968978E+03  0.67841968978E+03  0.00000000000E+00 0. -1.
         21    1    1    2  503  501  0.23317687365E+02  0.10001500872E+03  0.16101660517E+03  0.19097922309E+03  0.00000000000E+00 0.  1.
         21    1    1    2  504  505  0.30065264993E+01 -0.76891268023E+02  0.32266947624E+02  0.83441369888E+02  0.00000000000E+00 0. -1.
         21    1    1    2  505  502 -0.16064127192E+02 -0.58636512871E+02 -0.47648371535E+01  0.60983608430E+02  0.00000000000E+00 0. -1.
         21    1    1    2  506  503 -0.10260086673E+02  0.35512772175E+02 -0.60441228638E+03  0.60554160740E+03  0.00000000000E+00 0. -1.
<scales pt_clust_3="109.33897" pt_clust_4="35.15165" pt_clust_5="35.15165" pt_clust_6="36.96520"></scales>
<clustering>
<clus scale="   35.152">  4  5 -1 -1</clus>
<clus scale="   36.965">  2  6  1 -1</clus>
<clus scale="  109.339">  1  3  2 -1</clus>
<clus scale="  109.339">  1  3  2 -1</clus>
</clustering>
</event>
<event>
 6    0  0.1555973E+002  0.1395293E+03  0.7546771E-02  0.1213964E+00
         21   -1    0    0  505  501  0.00000000000E+00  0.00000000000E+00  0.15673071892E+02  0.15673071892E+02  0.00000000000E+00 0. -1.
         21   -1    0    0  506  502 -0.00000000000E+00 -0.00000000000E+00 -0.19304803866E+04  0.19304803866E+04  0.00000000000E+00 0. -1.
         21    1    1    2  503  502 -0.62108891441E+02  0.96840266694E+02 -0.73950261628E+03  0.74839806997E+03  0.00000000000E+00 0. -1.
         21    1    1    2  504  501  0.83370053731E+02 -0.86364910402E+02 -0.41804256837E+03  0.43493568787E+03  0.00000000000E+00 0. -1.
         21    1    1    2  505  503 -0.43060876277E+02  0.15308803798E+02 -0.23110969758E+03  0.23558499709E+03  0.00000000000E+00 0. -1.
         21    1    1    2  506  504  0.21799713987E+02 -0.25784160090E+02 -0.52615243248E+03  0.52723470357E+03  0.00000000000E+00 0. -1.
<scales pt_clust_3="31.49040" pt_clust_4="130.27706" pt_clust_5="31.49040" pt_clust_6="33.76463"></scales>
<clustering>
<clus scale="   31.490">  3  5 -1 -1</clus>
<clus scale="   33.765">  2  6  1 -1</clus>
<clus scale="  130.277">  1  4  2 -1</clus>
<clus scale="  130.277">  1  3  2 -1</clus>
</clustering>
</event>
<event>
 6    0  0.1555973E+002  0.1344367E+03  0.7546771E-02  0.1221017E+00
         21   -1    0    0  505  501  0.00000000000E+00  0.00000000000E+00  0.13902389562E+04  0.13902389562E+04  0.00000000000E+00 0. -1.
         21   -1    0    0  504  502 -0.00000000000E+00 -0.00000000000E+00 -0.41213345438E+02  0.41213345438E+02  0.00000000000E+00 0.  1.
         21    1    1    2  503  501  0.28021528626E+02 -0.23204446973E+02  0.41704801223E+03  0.41863193492E+03  0.00000000000E+00 0. -1.
         21    1    1    2  504  506 -0.10701794140E+03 -0.15629268399E+02  0.54955655833E+03  0.56009778130E+03  0.00000000000E+00 0. -1.
         21    1    1    2  505  502  0.10366859008E+03  0.65264308638E+02  0.75969919189E+02  0.14414588157E+03  0.00000000000E+00 0.  1.
         21    1    1    2  506  503 -0.24672177307E+02 -0.26430593266E+02  0.30645112106E+03  0.30857670390E+03  0.00000000000E+00 0. -1.
<scales pt_clust_3="36.38203" pt_clust_4="30.23736" pt_clust_5="123.84800" pt_clust_6="30.23736"></scales>
<clustering>
<clus scale="   30.237">  4  6 -1 -1</clus>
<clus scale="   36.382">  1  3  2 -1</clus>
<clus scale="  123.848">  2  5  1 -1</clus>
<clus scale="   36.382">  1  3  2 -1</clus>
</clustering>
</event>
<event>
 6    0  0.1555973E+002  0.1538534E+03  0.7546771E-02  0.1195816E+00
         21   -1    0    0  505  501  0.00000000000E+00  0.00000000000E+00  0.28646327214E+03  0.28646327214E+03  0.00000000000E+00 0.  1.
         21   -1    0    0  504  502 -0.00000000000E+00 -0.00000000000E+00 -0.40850903600E+03  0.40850903600E+03  0.00000000000E+00 0.  1.
         21    1    1    2  503  502 -0.34814713660E+02 -0.13654128110E+02 -0.30503472753E+03  0.30731853915E+03  0.00000000000E+00 0.  1.
         21    1    1    2  504  506 -0.52707381661E+02  0.63307190000E+02  0.67256607790E+02  0.10634528517E+03  0.00000000000E+00 0.  1.
         21    1    1    2  505  503  0.14633923334E+03 -0.57395163962E+02  0.68834035378E+01  0.15734280189E+03  0.00000000000E+00 0.  1.
         21    1    1    2  506  501 -0.58817138020E+02  0.77421020714E+01  0.10884895235E+03  0.12396568193E+03  0.00000000000E+00 0.  1.
<scales pt_clust_3="37.39652" pt_clust_4="57.49440" pt_clust_5="138.29899" pt_clust_6="57.49440"></scales>
<clustering>
<clus scale="   37.397">  2  3  1 -1</clus>
<clus scale="   57.494">  4  6 -1 -1</clus>
<clus scale="  138.299">  2  5  1 -1</clus>
<clus scale="  153.853">  1  3  2 -1</clus>
</clustering>
</event>
<event>
 6    0  0.1555973E+002  0.3252491E+03  0.7546771E-02  0.1073259E+00
         21   -1    0    0  502  501  0.00000000000E+00  0.00000000000E+00  0.43721276473E+03  0.43721276473E+03  0.00000000000E+00 0. -1.
         21   -1    0    0  503  502 -0.00000000000E+00 -0.00000000000E+00 -0.26179023430E+04  0.26179023430E+04  0.00000000000E+00 0.  1.
         21    1    1    2  503  504 -0.37148332004E+02  0.86119631352E+02 -0.16434660021E+04  0.16461400577E+04  0.00000000000E+00 0.  1.
         21    1    1    2  504  506 -0.78057548014E+02  0.22670989004E+03 -0.88091517346E+03  0.91296325111E+03  0.00000000000E+00 0.  1.
         21    1    1    2  505  501  0.31255045494E+02 -0.21012897641E+00  0.14920422131E+02  0.34634390706E+02  0.00000000000E+00 0.  1.
         21    1    1    2  506  505  0.83950834523E+02 -0.31261939242E+03  0.32877117520E+03  0.46137740818E+03  0.00000000000E+00 0. -1.
<scales pt_clust_3="93.74942" pt_clust_4="325.24914" pt_clust_5="31.25575" pt_clust_6="14000.00000"></scales>
<clustering>
<clus scale="   31.256">  1  5  2 -1</clus>
<clus scale="   93.749">  2  3  1 -1</clus>
<clus scale="  325.249">  2  4  1 -1</clus>
<clus scale="   31.256">  1  3  2 -1</clus>
</clustering>
</event>
<event>
 6    0  0.1555973E+002  0.1828232E+03  0.7546771E-02  0.1165098E+00
         21   -1    0    0  503  501  0.00000000000E+00  0.00000000000E+00  0.47857597748E+02  0.47857597748E+02  0.00000000000E+00 0.  1.
         21   -1    0    0  504  502 -0.00000000000E+00 -0.00000000000E+00 -0.14720402189E+04  0.14720402189E+04  0.00000000000E+00 0. -1.
         21    1    1    2  503  502  0.12467971850E+02 -0.19203088066E+03 -0.91451067270E+03  0.93453789646E+03  0.00000000000E+00 0. -1.
         21    1    1    2  504  505  0.53089196525E+02  0.41441375916E+02 -0.30922227377E+03  0.31647158644E+03  0.00000000000E+00 0. -1.
         21    1    1    2  505  506 -0.30234708633E+02  0.98800143378E+02 -0.17061661978E+03  0.19946337229E+03  0.00000000000E+00 0.  1.
         21    1    1    2  506  501 -0.35322459741E+02  0.51789361366E+02 -0.29833054946E+02  0.69424961507E+02  0.00000000000E+00 0. -1.
<scales pt_clust_3="168.16187" pt_clust_4="67.34872" pt_clust_5="55.87615" pt_clust_6="55.87615"></scales>
<clustering>
<clus scale="   55.876">  5  6 -1 -1</clus>
<clus scale="   67.349">  2  4  1 -1</clus>
<clus scale="  168.162">  2  3  1 -1</clus>
<clus scale="  182.823">  1  3  2 -1</clus>
</clustering>
</event>
<event>
 6    0  0.1555973E+002  0.1266366E+03  0.7546771E-02  0.1232534E+00
         21   -1    0    0  505  501  0.00000000000E+00  0.00000000000E+00  0.37547582922E+03  0.37547582922E+03  0.00000000000E+00 0. -1.
         21   -1    0    0  506  502 -0.00000000000E+00 -0.00000000000E+00 -0.34568739110E+03  0.34568739110E+03  0.00000000000E+00 0.  1.
         21    1    1    2  503  501  0.10533516791E+03 -0.52790416740E+01  0.15383644698E+03  0.18651814469E+03  0.00000000000E+00 0. -1.
         21    1    1    2  504  502 -0.56246435166E+02 -0.19686571024E+02 -0.30101467142E+03  0.30685673360E+03  0.00000000000E+00 0.  1.
         21    1    1    2  505  504 -0.87698056197E+02 -0.20204508275E+01  0.74789819966E+02  0.11527596650E+03  0.00000000000E+00 0.  1.
         21    1    1    2  506  503  0.38609323453E+02  0.26986063525E+02  0.10217684260E+03  0.11251237553E+03  0.00000000000E+00 0. -1.
<scales pt_clust_3="34.63123" pt_clust_4="59.59213" pt_clust_5="115.54908" pt_clust_6="34.63123"></scales>
<clustering>
<clus scale="   34.631">  3  6 -1 -1</clus>
<clus scale="   59.592">  2  4  1 -1</clus>
<clus scale="  115.549">  2  5  1 -1</clus>
<clus scale="  126.637">  1  3  2 -1</clus>
</clustering>
</event>
<event>
 6    0  0.1555973E+002  0.3248852E+03  0.7546771E-02  0.1073423E+00
         21   -1    0    0  504  501  0.00000000000E+00  0.00000000000E+00  0.15289720786E+04  0.15289720786E+04  0.00000000000E+00 0. -1.
         21   -1    0    0  503  502 -0.00000000000E+00 -0.00000000000E+00 -0.69831353833E+02  0.69831353833E+02  0.00000000000E+00 0. -1.
         21    1    1    2  503  501 -0.27335934821E+02 -0.29986880374E+03  0.47477450031E+03  0.56220937286E+03  0.00000000000E+00 0. -1.
         21    1    1    2  504  505 -0.33736644707E+02  0.53847684825E+02  0.16816852494E+03  0.17977315466E+03  0.00000000000E+00 0. -1.
         21    1    1    2  505  506  0.14320747549E+02  0.13119024476E+03  0.33904600118E+03  0.36382434642E+03  0.00000000000E+00 0. -1.
         21    1    1    2  506  502  0.46751831979E+02  0.11483087416E+03  0.47715169831E+03  0.49299655846E+03  0.00000000000E+00 0. -1.
<scales pt_clust_3="301.11219" pt_clust_4="41.72449" pt_clust_5="75.81597" pt_clust_6="75.81597"></scales>
<clustering>
<clus scale="   41.724">  4  5 -1 -1</clus>
<clus scale="   75.816">  4  6 -1 -1</clus>
<clus scale="  301.112">  2  3  1 -1</clus>
<clus scale="  324.885">  1  3  2 -1</clus>
</clustering>
</event>
<event>
 6    0  0.1555973E+002  0.1730614E+03  0.7546771E-02  0.1174692E+00
         21   -1    0    0  505  501  0.00000000000E+00  0.00000000000E+00  0.12930569943E+03  0.12930569943E+03  0.00000000000E+00 0.  1.
         21   -1    0    0  504  502 -0.00000000000E+00 -0.00000000000E+00 -0.11507087537E+04  0.11507087537E+04  0.00000000000E+00 0. -1.
         21    1    1    2  503  506 -0.93884471080E+02  0.10649219196E+03 -0.60385646590E+03  0.62032049158E+03  0.00000000000E+00 0. -1.
         21    1    1    2  504  501  0.58318283259E+02 -0.15939885726E+03  0.36978081514E+02  0.17371354688E+03  0.00000000000E+00 0.  1.
         21    1    1    2  505  503  0.40647715547E+02  0.88921315507E+01 -0.15003014056E+02  0.44231179201E+02  0.00000000000E+00 0.  1.
         21    1    1    2  506  502 -0.50815277261E+01  0.44014533748E+02 -0.43952165581E+03  0.44174923546E+03  0.00000000000E+00 0. -1.
<scales pt_clust_3="14000.00000" pt_clust_4="173.06142" pt_clust_5="41.60897" pt_clust_6="44.34923"></scales>
<clustering>
<clus scale="   41.609">  1  5  2 -1</clus>
<clus scale="   44.349">  2  6  1 -1</clus>
<clus scale="  173.061">  1  4  2 -1</clus>
<clus scale="   41.609">  1  3  2 -1</clus>
</clustering>
</event>
<event>
 6    0  0.1555973E+002  0.1338013E+03  0.7546771E-02  0.1221922E+00
         21   -1    0    0  503  501  0.00000000000E+00  0.00000000000E+00  0.21546901284E+03  0.21546901284E+03  0.00000000000E+00 0. -1.
         21   -1    0    0  505  502 -0.00000000000E+00 -0.00000000000E+00 -0.11229442689E+04  0.11229442689E+04  0.00000000000E+00 0. -1.
         21    1    1    2  503  506  0.50980380202E+02 -0.62456082524E+01 -0.21756330614E+02  0.55779429092E+02  0.00000000000E+00 0. -1.
         21    1    1    2  504  501  0.54468321558E+02  0.21328138355E+02  0.46361424133E+02  0.74639595301E+02  0.00000000000E+00 0. -1.
         21    1    1    2  505  504  0.52556048705E+01  0.65283730419E+02  0.12552174345E+03  0.14158140739E+03  0.00000000000E+00 0. -1.
         21    1    1    2  506  502 -0.11070430663E+03 -0.80366260521E+02 -0.10576020930E+04  0.10664128499E+04  0.00000000000E+00 0. -1.
<scales pt_clust_3="51.36153" pt_clust_4="72.65453" pt_clust_5="14000.00000" pt_clust_6="133.80130"></scales>
<clustering>
<clus scale="   51.362">  1  3  2 -1</clus>
<clus scale="   72.655">  1  4  2 -1</clus>
<clus scale="  133.801">  2  6  1 -1</clus>
<clus scale="   51.362">  1  3  2 -1</clus>
</clustering>
</event>
<event>
 6    0  0.1555973E+002  0.1067792E+03  0.7546771E-02  0.1266653E+00
         21   -1    0    0  505  501  0.00000000000E+00  0.00000000000E+00  0.77122699521E+02  0.77122699521E+02  0.00000000000E+00 0.  1.
         21   -1    0    0  503  502 -0.00000000000E+00 -0.00000000000E+00 -0.17503861061E+04  0.17503861061E+04  0.00000000000E+00 0. -1.
         21    1    1    2  503  501 -0.96057502655E+02 -0.34989137970E+02 -0.13735606050E+04  0.13773598002E+04  0.00000000000E+00 0. -1.
         21    1    1    2  504  506 -0.72524375317E+02  0.13969332815E+01 -0.13616401649E+01  0.72550606488E+02  0.00000000000E+00 0.  1.
         21    1    1    2  505  504 -0.24622640951E+02  0.28778253293E+02 -0.41809277968E+02  0.56413456145E+02  0.00000000000E+00 0.  1.
         21    1    1    2  506  502  0.19320451892E+03  0.48139513959E+01 -0.25653188351E+03  0.32118494286E+03  0.00000000000E+00 0.  1.
<scales pt_clust_3="106.77925" pt_clust_4="86.58103" pt_clust_5="37.87430" pt_clust_6="14000.00000"></scales>
<clustering>
<clus scale="   37.874">  1  5  2 -1</clus>
<clus scale="   86.581">  1  4  2 -1</clus>
<clus scale="  106.779">  2  3  1 -1</clus>
<clus scale="   37.874">  1  3  2 -1</clus>
</clustering>
</event>
<event>
 6    0  0.1555973E+002  0.1412901E+03  0.7546771E-02  0.1211604E+00
         21   -1    0    0  504  501  0.00000000000E+00  0.00000000000E+00  0.90021782836E+02  0.90021782836E+02  0.00000000000E+00 0.  1.
         21   -1    0    0  503  502 -0.00000000000E+00 -0.00000000000E+00 -0.40081495719E+03  0.40081495719E+03  0.00000000000E+00 0.  1.
         21    1    1    2  503  505 -0.11117790963E+03 -0.63520176488E+01 -0.12292515947E+03  0.16586582092E+03  0.00000000000E+00 0.  1.
         21    1    1    2  504  502 -0.31846488903E+02  0.67647565967E+02 -0.13400670619E+03  0.15345419297E+03  0.00000000000E+00 0.  1.
         21    1    1    2  505  506  0.99013380659E+02 -0.43907298834E+02 -0.59964621635E+02  0.12380329676E+03  0.00000000000E+00 0.  1.
         21    1    1    2  506  501  0.44011017876E+02 -0.17388249485E+02  0.61033129338E+01  0.47713429382E+02  0.00000000000E+00 0.  1.
<scales pt_clust_3="132.88742" pt_clust_4="74.76892" pt_clust_5="31.72600" pt_clust_6="31.72600"></scales>
<clustering>
<clus scale="   31.726">  5  6 -1 -1</clus>
<clus scale="   74.769">  2  4  1 -1</clus>
<clus scale="  132.887">  2  3  1 -1</clus>
<clus scale="  141.290">  1  3  2 -1</clus>
</clustering>
</event>
<event>
 6    0  0.1555973E+002  0.1539965E+03  0.7546771E-02  0.1195646E+00
         21   -1    0    0  504  501  0.00000000000E+00  0.00000000000E+00  0.33512393190E+04  0.33512393190E+04  0.00000000000E+00 0. -1.
         21   -1    0    0  506  502 -0.00000000000E+00 -0.00000000000E+00 -0.11660615130E+03  0.11660615130E+03  0.00000000000E+00 0. -1.
         21    1    1    2  503  502  0.51052543140E+02  0.14700752308E+03 -0.56800856122E+02  0.16566203928E+03  0.00000000000E+00 0. -1.
         21    1    1    2  504  505 -0.37879437884E+02 -0.56672447333E+02  0.19021305309E+04  0.19033515636E+04  0.00000000000E+00 0. -1.
         21    1    1    2  505  503 -0.44135989056E+02 -0.11507794389E+03  0.10291491515E+04  0.10365032053E+04  0.00000000000E+00 0. -1.
         21    1    1    2  506  501  0.30962883800E+02  0.24742868148E+02  0.36015434139E+03  0.36232866202E+03  0.00000000000E+00 0.  1.
<scales pt_clust_3="153.99649" pt_clust_4="44.78126" pt_clust_5="14000.00000" pt_clust_6="39.63470"></scales>
<clustering>
<clus scale="   39.635">  1  6  2 -1</clus>
<clus scale="   44.781">  1  4  2 -1</clus>
<clus scale="  153.996">  2  3  1 -1</clus>
<clus scale="   39.635">  1  3  2 -1</clus>
</clustering>
</event>
<event>
 6    0  0.1555973E+002  0.1048246E+03  0.7546771E-02  0.1270466E+00
         21   -1    0    0  506  501  0.00000000000E+00  0.00000000000E+00  0.74851091144E+03  0.74851091144E+03  0.00000000000E+00 0.  1.
         21   -1    0    0  504  502 -0.00000000000E+00 -0.00000000000E+00 -0.22060852122E+03  0.22060852122E+03  0.00000000000E+00 0. -1.
         21    1    1    2  503  501 -0.43800920700E+02 -0.12877612508E+02  0.53883530074E+02  0.70624276077E+02  0.00000000000E+00 0. -1.
         21    1    1    2  504  505 -0.33620957779E+02 -0.35380169889E+02  0.33407534710E+03  0.33762177471E+03  0.00000000000E+00 0.  1.
         21    1    1    2  505  503 -0.29847132190E+02  0.39295550763E+02  0.33471667541E+03  0.33833451555E+03  0.00000000000E+00 0.  1.
         21    1    1    2  506  502  0.10726901067E+03  0.89622316343E+01 -0.19477316237E+03  0.22253886633E+03  0.00000000000E+00 0. -1.
<scales pt_clust_3="45.65472" pt_clust_4="104.82462" pt_clust_5="61.00900" pt_clust_6="14000.00000"></scales>
<clustering>
<clus scale="   45.655">  1  3  2 -1</clus>
<clus scale="   61.009">  1  5  2 -1</clus>
<clus scale="  104.825">  1  4  2 -1</clus>
<clus scale="   45.655">  1  3  2 -1</clus>
</clustering>
</event>
<event>
 6    0  0.1555973E+002  0.3491324E+03  0.7546771E-02  0.1062972E+00
         21   -1    0    0  506  501  0.00000000000E+00  0.00000000000E+00  0.85017759015E+03  0.85017759015E+03  0.00000000000E+00 0. -1.
         21   -1    0    0  503  502 -0.00000000000E+00 -0.00000000000E+00 -0.84847490605E+03  0.84847490605E+03  0.00000000000E+00 0. -1.
         21    1    1    2  503  504 -0.19303396137E+03 -0.27951393845E+03 -0.76813701553E+03  0.83989560462E+03  0.00000000000E+00 0. -1.
         21    1    1    2  504  501 -0.15769755721E+02  0.40789882985E+02  0.43750001146E+02  0.61859213944E+02  0.00000000000E+00 0.  1.
         21    1    1    2  505  502  0.12108487705E+03  0.16232613815E+03  0.54762035356E+03  0.58386588718E+03  0.00000000000E+00 0. -1.
         21    1    1    2  506  505  0.87718840040E+02  0.76397917315E+02  0.17846934492E+03  0.21303179046E+03  0.00000000000E+00 0. -1.
<scales pt_clust_3="338.58813" pt_clust_4="43.73214" pt_clust_5="62.91330" pt_clust_6="62.91330"></scales>
<clustering>
<clus scale="   43.732">  1  4  2 -1</clus>
<clus scale="   62.913">  5  6 -1 -1</clus>
<clus scale="  338.588">  2  3  1 -1</clus>
<clus scale="   43.732">  1  3  2 -1</clus>
</clustering>
</event>
<event>
 6    0  0.1555973E+002  0.1864594E+03  0.7546771E-02  0.1161694E+00
         21   -1    0    0  505  501  0.00000000000E+00  0.00000000000E+00  0.14308323012E+03  0.14308323012E+03  0.00000000000E+00 0. -1.
         21   -1    0    0  506  502 -0.00000000000E+00 -0.00000000000E+00 -0.64135229911E+03  0.64135229911E+03  0.00000000000E+00 0. -1.
         21    1    1    2  503  504 -0.16524347986E+03  0.61047162494E+02 -0.24945845889E+03  0.30538776399E+03  0.00000000000E+00 0. -1.
         21    1    1    2  504  502 -0.68081949254E+02  0.56190637298E+02 -0.11592014394E+03  0.14570524804E+03  0.00000000000E+00 0. -1.
         21    1    1    2  505  503  0.12855909254E+03 -0.10513363751E+03 -0.30957761874E+01  0.16610269667E+03  0.00000000000E+00 0. -1.
         21    1    1    2  506  501  0.10476633658E+03 -0.12104162282E+02 -0.12979468997E+03  0.16723982052E+03  0.00000000000E+00 0. -1.
<scales pt_clust_3="30.01598" pt_clust_4="30.01598" pt_clust_5="181.57414" pt_clust_6="105.46324"></scales>
<clustering>
<clus scale="   30.016">  3  4 -1 -1</clus>
<clus scale="  105.463">  2  6  1 -1</clus>
<clus scale="  181.574">  1  5  2 -1</clus>
<clus scale="  181.574">  1  3  2 -1</clus>
</clustering>
</event>
<event>
 6    0  0.1555973E+002  0.1992321E+03  0.7546771E-02  0.1150388E+00
         21   -1    0    0  506  501  0.00000000000E+00  0.00000000000E+00  0.91556997992E+03  0.91556997992E+03  0.00000000000E+00 0.  1.
         21   -1    0    0  503  502 -0.00000000000E+00 -0.00000000000E+00 -0.67721341253E+03  0.67721341253E+03  0.00000000000E+00 0.  1.
         21    1    1    2  503  505 -0.85506262127E+02 -0.15386844377E+03 -0.59182917033E+03  0.61745330650E+03  0.00000000000E+00 0.  1.
         21    1    1    2  504  501  0.23065217263E+02 -0.35949675116E+02  0.18052609303E+03  0.18551025215E+03  0.00000000000E+00 0.  1.
         21    1    1    2  505  504  0.18467179755E+03 -0.35387603322E+02  0.33356791894E+03  0.38291449675E+03  0.00000000000E+00 0.  1.
         21    1    1    2  506  502 -0.12223075269E+03  0.22520572221E+03  0.31609172576E+03  0.40690533704E+03  0.00000000000E+00 0.  1.
<scales pt_clust_3="176.38560" pt_clust_4="42.71280" pt_clust_5="14000.00000" pt_clust_6="199.23212"></scales>
<clustering>
<clus scale="   42.713">  1  4  2 -1</clus>
<clus scale="  176.386">  2  3  1 -1</clus>
<clus scale="  199.232">  2  6  1 -1</clus>
<clus scale="   42.713">  1  3  2 -1</clus>
</clustering>
</event>
<event>
 6    0  0.1555973E+002  0.1182155E+03  0.7546771E-02  0.1246070E+00
         21   -1    0    0  504  501  0.00000000000E+00  0.00000000000E+00  0.58747963595E+03  0.58747963595E+03  0.00000000000E+00 0. -1.
         21   -1    0    0  503  502 -0.00000000000E+00 -0.00000000000E+00 -0.19829955429E+03  0.19829955429E+03  0.00000000000E+00 0. -1.
         21    1    1    2  503  506 -0.19489896244E+02  0.36276025715E+02  0.11916297453E+01  0.41197403786E+02  0.00000000000E+00 0. -1.
         21    1    1    2  504  505  0.29240341107E+02 -0.11455110717E+03  0.50042329606E+03  0.51419882238E+03  0.00000000000E+00 0. -1.
         21    1    1    2  505  502  0.35780687210E+02  0.85168017194E+02 -0.14643671435E+03  0.17314029005E+03  0.00000000000E+00 0. -1.
         21    1    1    2  506  501 -0.45531132073E+02 -0.68929357430E+01  0.34001870207E+02  0.57242674016E+02  0.00000000000E+00 0. -1.
<scales pt_clust_3="41.18017" pt_clust_4="14000.00000" pt_clust_5="118.21552" pt_clust_6="47.01997"></scales>
<clustering>
<clus scale="   41.180">  2  3  1 -1</clus>
<clus scale="   47.020">  1  6  2 -1</clus>
<clus scale="  118.216">  2  5  1 -1</clus>
<clus scale="   47.020">  1  3  2 -1</clus>
</clustering>
</event>
<event>
 6    0  0.1555973E+002  0.2443718E+03  0.7546771E-02  0.1116914E+00
         21   -1    0    0  502  501  0.00000000000E+00  0.00000000000E+00  0.79292860008E+03  0.79292860008E+03  0.00000000000E+00 0.  1.
         21   -1    0    0  505  502 -0.00000000000E+00 -0.00000000000E+00 -0.31773746328E+03  0.31773746328E+03  0.00000000000E+00 0. -1.
         21    1    1    2  503  506  0.10478154984E+03 -0.76202004028E+02  0.38153121985E+03  0.40292926218E+03  0.00000000000E+00 0.  1.
         21    1    1    2  504  503  0.35229221802E+02  0.14884148060E+01  0.52764603373E+02  0.63461932026E+02  0.00000000000E+00 0. -1.
         21    1    1    2  505  504 -0.20430675490E+03  0.54706483012E+02 -0.26044195960E+03  0.33550568356E+03  0.00000000000E+00 0. -1.
         21    1    1    2  506  501  0.64295983250E+02  0.20007106210E+02  0.30133727318E+03  0.30876918559E+03  0.00000000000E+00 0.  1.
<scales pt_clust_3="61.28284" pt_clust_4="31.83029" pt_clust_5="211.50425" pt_clust_6="61.28284"></scales>
<clustering>
<clus scale="   31.830">  3  4 -1 -1</clus>
<clus scale="   61.283">  3  6 -1 -1</clus>
<clus scale="  211.504">  2  5  1 -1</clus>
<clus scale="  244.372">  1  3  2 -1</clus>
</clustering>
</event>
<event>
 6    0  0.1686774E+002  0.9546626E+02  0.7546771E-02  0.1290129E+00
         21   -1    0    0  504  501  0.00000000000E+00  0.00000000000E+00  0.27763620341E+03  0.27763620341E+03  0.00000000000E+00 0.  1.
         21   -1    0    0  505  502 -0.00000000000E+00 -0.00000000000E+00 -0.74727828512E+03  0.74727828512E+03  0.00000000000E+00 0.  1.
         21    1    1    2  503  501 -0.96229488578E+01  0.30159006233E+02  0.14319349063E+02  0.34744935735E+02  0.00000000000E+00 0. -1.
         21    1    1    2  504  506  0.38839492975E+02  0.12316942705E+03  0.21355933304E+03  0.24957324116E+03  0.00000000000E+00 0.  1.
         21    1    1    2  505  503 -0.38236267657E+01 -0.61810884348E+02 -0.34664740112E+02  0.70970766887E+02  0.00000000000E+00 0. -1.
         21    1    1    2  506  502 -0.25392917352E+02 -0.91517548938E+02 -0.66285602371E+03  0.66962554475E+03  0.00000000000E+00 0.  1.
<scales pt_clust_3="31.65702" pt_clust_4="14000.00000" pt_clust_5="59.81838" pt_clust_6="95.46626"></scales>
<clustering>
<clus scale="   31.657">  1  3  2 -1</clus>
<clus scale="   59.818">  1  5  2 -1</clus>
<clus scale="   95.466">  2  6  1 -1</clus>
<clus scale="   31.657">  1  3  2 -1</clus>
</clustering>
</event>
<event>
 6    0  0.1555973E+002  0.1913623E+03  0.7546771E-02  0.1157238E+00
         21   -1    0    0  505  501  0.00000000000E+00  0.00000000000E+00  0.22414448996E+04  0.22414448996E+04  0.00000000000E+00 0.  1.
         21   -1    0    0  506  502 -0.00000000000E+00 -0.00000000000E+00 -0.53500777379E+02  0.53500777379E+02  0.00000000000E+00 0. -1.
         21    1    1    2  503  502 -0.16270035006E+03  0.97509824418E+02  0.14242043456E+03  0.23719854542E+03  0.00000000000E+00 0. -1.
         21    1    1    2  504  501  0.73407238732E+02 -0.41955546210E+02  0.81363674573E+03  0.81801811995E+03  0.00000000000E+00 0.  1.
         21    1    1    2  505  503  0.40210210285E+02  0.52539606414E+01  0.16223745892E+03  0.16722876005E+03  0.00000000000E+00 0.  1.
         21    1    1    2  506  504  0.49082901044E+02 -0.60808238850E+02  0.10696494830E+04  0.10725002515E+04  0.00000000000E+00 0.  1.
<scales pt_clust_3="186.79147" pt_clust_4="39.96901" pt_clust_5="40.55201" pt_clust_6="39.96901"></scales>
<clustering>
<clus scale="   39.969">  4  6 -1 -1</clus>
<clus scale="   40.552">  1  5  2 -1</clus>
<clus scale="  186.791">  2  3  1 -1</clus>
<clus scale="   40.552">  1  3  2 -1</clus>
</clustering>
</event>
<event>
 6    0  0.1555973E+002  0.1111438E+03  0.7546771E-02  0.1258466E+00
         21   -1    0    0  505  501  0.00000000000E+00  0.00000000000E+00  0.77264751569E+02  0.77264751569E+02  0.00000000000E+00 0.  1.
         21   -1    0    0  506  502 -0.00000000000E+00 -0.00000000000E+00 -0.10960066331E+04  0.10960066331E+04  0.00000000000E+00 0.  1.
         21    1    1    2  503  501  0.10859189844E+03 -0.57531401334E+02 -0.10070911182E+03  0.15888482542E+03  0.00000000000E+00 0.  1.
         21    1    1    2  504  502 -0.37308972584E+01  0.39594371545E+02 -0.86328946053E+01  0.40695954610E+02  0.00000000000E+00 0.  1.
         21    1    1    2  505  504 -0.54499822238E+02  0.35641875611E+02 -0.24444975539E+01  0.65165554469E+02  0.00000000000E+00 0.  1.
         21    1    1    2  506  503 -0.50361178943E+02 -0.17704845822E+02 -0.90695537760E+03  0.90852505021E+03  0.00000000000E+00 0.  1.
<scales pt_clust_3="101.58893" pt_clust_4="35.23308" pt_clust_5="35.23308" pt_clust_6="53.38267"></scales>
<clustering>
<clus scale="   35.233">  4  5 -1 -1</clus>
<clus scale="   53.383">  2  6  1 -1</clus>
<clus scale="  101.589">  2  3  1 -1</clus>
<clus scale="  111.144">  1  3  2 -1</clus>
</clustering>
</event>
<event>
 6    0  0.1555973E+002  0.1927353E+03  0.7546771E-02  0.1156017E+00
         21   -1    0    0  503  501  0.00000000000E+00  0.00000000000E+00  0.23265906112E+04  0.23265906112E+04  0.00000000000E+00 0. -1.
         21   -1    0    0  506  502 -0.00000000000E+00 -0.00000000000E+00 -0.29963015606E+04  0.29963015606E+04  0.00000000000E+00 0. -1.
         21    1    1    2  503  505  0.49156134517E+02  0.49510904436E+01  0.41418145074E+03  0.41711762489E+03  0.00000000000E+00 0. -1.
         21    1    1    2  504  501  0.82997215839E+02 -0.14564421359E+03  0.18781635384E+04  0.18856296168E+04  0.00000000000E+00 0. -1.
         21    1    1    2  505  502 -0.16551802540E+03  0.20808985330E+03 -0.29236253773E+04  0.29356912219E+04  0.00000000000E+00 0. -1.
         21    1    1    2  506  504  0.33364675042E+02 -0.67396730151E+02 -0.38430561317E+02  0.84453708142E+02  0.00000000000E+00 0.  1.
<scales pt_clust_3="49.40485" pt_clust_4="192.73535" pt_clust_5="14000.00000" pt_clust_6="75.41444"></scales>
<clustering>
<clus scale="   49.405">  1  3  2 -1</clus>
<clus scale="   75.414">  2  6  1 -1</clus>
<clus scale="  192.735">  1  4  2 -1</clus>
<clus scale="   49.405">  1  3  2 -1</clus>
</clustering>
</event>
<event>
 6    0  0.1555973E+002  0.2312433E+03  0.7546771E-02  0.1125768E+00
         21   -1    0    0  504  501  0.00000000000E+00  0.00000000000E+00  0.16572641005E+04  0.16572641005E+04  0.00000000000E+00 0.  1.
         21   -1    0    0  505  502 -0.00000000000E+00 -0.00000000000E+00 -0.18673684225E+03  0.18673684225E+03  0.00000000000E+00 0. -1.
         21    1    1    2  503  502 -0.30953135730E+02  0.51489659052E+02 -0.14127052704E+03  0.15351431012E+03  0.00000000000E+00 0. -1.
         21    1    1    2  504  506 -0.34241725149E+02  0.33459053306E+02  0.13661324138E+03  0.14475904708E+03  0.00000000000E+00 0. -1.
         21    1    1    2  505  501  0.19396417981E+03 -0.13075875589E+03  0.13128108865E+04  0.13334887997E+04  0.00000000000E+00 0.  1.
         21    1    1    2  506  503 -0.12876931893E+03  0.45810043529E+02  0.16237365743E+03  0.21223878584E+03  0.00000000000E+00 0. -1.
<scales pt_clust_3="60.07730" pt_clust_4="42.67084" pt_clust_5="219.71655" pt_clust_6="42.67084"></scales>
<clustering>
<clus scale="   42.671">  4  6 -1 -1</clus>
<clus scale="   60.077">  2  3  1 -1</clus>
<clus scale="  219.717">  1  5  2 -1</clus>
<clus scale="  219.717">  1  3  2 -1</clus>
</clustering>
</event>
<event>
 6    0  0.1555973E+002  0.8191510E+02  0.7546771E-02  0.1323703E+00
         21   -1    0    0  505  501  0.00000000000E+00  0.00000000000E+00  0.76922079187E+03  0.76922079187E+03  0.00000000000E+00 0.  1.
         21   -1    0    0  504  502 -0.00000000000E+00 -0.00000000000E+00 -0.28181624780E+03  0.28181624780E+03  0.00000000000E+00 0. -1.
         21    1    1    2  503  501 -0.45814696126E+02  0.35781517832E+02  0.20901596022E+03  0.21694924527E+03  0.00000000000E+00 0. -1.
         21    1    1    2  504  503  0.19471706861E+02 -0.29393621784E+02  0.74551420851E+00  0.35265963210E+02  0.00000000000E+00 0. -1.
         21    1    1    2  505  506  0.84141527904E+02  0.37630714599E+02  0.52910575158E+03  0.53707426279E+03  0.00000000000E+00 0.  1.
         21    1    1    2  506  502 -0.57798538640E+02 -0.44018610647E+02 -0.25146268194E+03  0.26174756839E+03  0.00000000000E+00 0. -1.
<scales pt_clust_3="57.63066" pt_clust_4="35.25808" pt_clust_5="81.91510" pt_clust_6="14000.00000"></scales>
<clustering>
<clus scale="   35.258">  2  4  1 -1</clus>
<clus scale="   57.631">  1  3  2 -1</clus>
<clus scale="   81.915">  1  5  2 -1</clus>
<clus scale="   57.631">  1  3  2 -1</clus>
</clustering>
</event>
<event>
 6    0  0.1555973E+002  0.2217677E+03  0.7546771E-02  0.1132572E+00
         21   -1    0    0  504  501  0.00000000000E+00  0.00000000000E+00  0.46964390800E+03  0.46964390800E+03  0.00000000000E+00 0.  1.
         21   -1    0    0  506  502 -0.00000000000E+00 -0.00000000000E+00 -0.72311491348E+03  0.72311491348E+03  0.00000000000E+00 0. -1.
         21    1    1    2  503  502  0.38722365784E+02  0.28369828998E+02 -0.23405822713E+03  0.23892995312E+03  0.00000000000E+00 0.  1.
         21    1    1    2  504  505  0.22613646107E+02 -0.10531388182E+03  0.26051200157E+03  0.28190227679E+03  0.00000000000E+00 0.  1.
         21    1    1    2  505  503  0.12966240346E+02 -0.10872896089E+03  0.15699658231E+03  0.19141065065E+03  0.00000000000E+00 0.  1.
         21    1    1    2  506  501 -0.74302252237E+02  0.18567301372E+03 -0.43692136223E+03  0.48051594093E+03  0.00000000000E+00 0. -1.
<scales pt_clust_3="48.00280" pt_clust_4="50.96903" pt_clust_5="50.96903" pt_clust_6="215.75328"></scales>
<clustering>
<clus scale="   48.003">  2  3  1 -1</clus>
<clus scale="   50.969">  4  5 -1 -1</clus>
<clus scale="  215.753">  2  6  1 -1</clus>
<clus scale="  221.768">  1  3  2 -1</clus>
</clustering>
</event>
<event>
 6    0  0.1555973E+002  0.2063977E+03  0.7546771E-02  0.1144451E+00
         21   -1    0    0  503  501  0.00000000000E+00  0.00000000000E+00  0.22029222224E+03  0.22029222224E+03  0.00000000000E+00 0. -1.
         21   -1    0    0  505  502 -0.00000000000E+00 -0.00000000000E+00 -0.32645773752E+03  0.32645773752E+03  0.00000000000E+00 0.  1.
         21    1    1    2  503  502 -0.13065770082E+03  0.16720764128E+03 -0.66271265412E+02  0.22230994288E+03  0.00000000000E+00 0.  1.
         21    1    1    2  504  501  0.52927240570E+02 -0.38586116540E+02  0.64898948743E+02  0.92206587247E+02  0.00000000000E+00 0. -1.
         21    1    1    2  505  506 -0.59747251941E+01 -0.48170080012E+02 -0.10550182118E+03  0.11613220149E+03  0.00000000000E+00 0.  1.
         21    1    1    2  506  504  0.83705185440E+02 -0.80451444732E+02  0.70862257087E+00  0.11610122814E+03  0.00000000000E+00 0. -1.
<scales pt_clust_3="190.65831" pt_clust_4="58.05543" pt_clust_5="48.53920" pt_clust_6="58.05543"></scales>
<clustering>
<clus scale="   48.539">  2  5  1 -1</clus>
<clus scale="   58.055">  4  6 -1 -1</clus>
<clus scale="  190.658">  2  3  1 -1</clus>
<clus scale="  206.398">  1  3  2 -1</clus>
</clustering>
</event>
<event>
 6    0  0.1555973E+002  0.1874102E+03  0.7546771E-02  0.1160818E+00
         21   -1    0    0  505  501  0.00000000000E+00  0.00000000000E+00  0.93851816981E+03  0.93851816981E+03  0.00000000000E+00 0.  1.
         21   -1    0    0  504  502 -0.00000000000E+00 -0.00000000000E+00 -0.41271935041E+03  0.41271935041E+03  0.00000000000E+00 0.  1.
         21    1    1    2  503  502  0.43081854492E+02 -0.24919571492E+02  0.20021583489E+02  0.53646016023E+02  0.00000000000E+00 0. -1.
         21    1    1    2  504  506  0.46859787907E+02 -0.14009859206E+03 -0.33724762447E+03  0.36818394238E+03  0.00000000000E+00 0.  1.
         21    1    1    2  505  503 -0.21181656556E+03  0.13493139620E+03  0.43261796425E+03  0.50023098877E+03  0.00000000000E+00 0.  1.
         21    1    1    2  506  501  0.12187492316E+03  0.30086767350E+02  0.41040689612E+03  0.42917657304E+03  0.00000000000E+00 0.  1.
<scales pt_clust_3="49.76978" pt_clust_4="187.41018" pt_clust_5="14000.00000" pt_clust_6="126.38625"></scales>
<clustering>
<clus scale="   49.770">  2  3  1 -1</clus>
<clus scale="  126.386">  1  6  2 -1</clus>
<clus scale="  187.410">  2  4  1 -1</clus>
<clus scale="  126.386">  1  3  2 -1</clus>
</clustering>
</event>
<event>
 6    0  0.1555973E+002  0.1697831E+03  0.7546771E-02  0.1178074E+00
         21   -1    0    0  503  501  0.00000000000E+00  0.00000000000E+00  0.73044509612E+03  0.73044509612E+03  0.00000000000E+00 0.  1.
         21   -1    0    0  506  502 -0.00000000000E+00 -0.00000000000E+00 -0.21041465489E+03  0.21041465489E+03  0.00000000000E+00 0. -1.
         21    1    1    2  503  505  0.54183334716E+02 -0.16911637164E+02  0.32261301967E+03  0.32756830997E+03  0.00000000000E+00 0.  1.
         21    1    1    2  504  502 -0.13200380685E+03  0.88347971327E+02 -0.16593574387E+03  0.22970642166E+03  0.00000000000E+00 0. -1.
         21    1    1    2  505  504  0.43369116999E+02 -0.75006618067E+02  0.28590194515E+03  0.29874202132E+03  0.00000000000E+00 0.  1.
         21    1    1    2  506  501  0.34451355133E+02  0.35702839038E+01  0.77451220282E+02  0.84842998066E+02  0.00000000000E+00 0.  1.
<scales pt_clust_3="55.77300" pt_clust_4="157.53599" pt_clust_5="55.77300" pt_clust_6="34.63586"></scales>
<clustering>
<clus scale="   34.636">  1  6  2 -1</clus>
<clus scale="   55.773">  3  5 -1 -1</clus>
<clus scale="  157.536">  2  4  1 -1</clus>
<clus scale="   34.636">  1  3  2 -1</clus>
</clustering>
</event>
<event>
 6    0  0.1555973E+002  0.9291280E+02  0.7546771E-02  0.1295947E+00
         21   -1    0    0  504  501  0.00000000000E+00  0.00000000000E+00  0.12148546140E+03  0.12148546140E+03  0.00000000000E+00 0. -1.
         21   -1    0    0  503  502 -0.00000000000E+00 -0.00000000000E+00 -0.33509447367E+03  0.33509447367E+03  0.00000000000E+00 0. -1.
         21    1    1    2  503  505  0.61485307156E+01 -0.63980947717E+02 -0.41203070579E+01  0.64407631776E+02  0.00000000000E+00 0. -1.
         21    1    1    2  504  502 -0.31876816379E+02  0.41444451517E+02 -0.22718735369E+03  0.23312629122E+03  0.00000000000E+00 0. -1.
         21    1    1    2  505  506  0.35803160792E+02 -0.50734298713E+02 -0.32081775494E+02  0.69893316615E+02  0.00000000000E+00 0. -1.
         21    1    1    2  506  501 -0.10074875128E+02  0.73270794913E+02  0.49780423971E+02  0.89152695455E+02  0.00000000000E+00 0. -1.
<scales pt_clust_3="41.77725" pt_clust_4="52.28550" pt_clust_5="41.77725" pt_clust_6="82.62062"></scales>
<clustering>
<clus scale="   41.777">  3  5 -1 -1</clus>
<clus scale="   52.286">  2  4  1 -1</clus>
<clus scale="   82.621">  1  6  2 -1</clus>
<clus scale="   82.621">  1  3  2 -1</clus>
</clustering>
</event>
<event>
 6    0  0.1555973E+002  0.1025272E+03  0.7546771E-02  0.1275070E+00
         21   -1    0    0  503  501  0.00000000000E+00  0.00000000000E+00  0.36678352988E+03  0.36678352988E+03  0.00000000000E+00 0. -1.
         21   -1    0    0  504  502 -0.00000000000E+00 -0.00000000000E+00 -0.58174204464E+03  0.58174204464E+03  0.00000000000E+00 0.  1.
         21    1    1    2  503  502  0.38610289249E+02  0.13908084211E+02  0.23567225011E+03  0.23921872567E+03  0.00000000000E+00 0. -1.
         21    1    1    2  504  506 -0.10024553163E+03  0.33983108359E+02 -0.55139719379E+03  0.56146494422E+03  0.00000000000E+00 0.  1.
         21    1    1    2  505  501  0.30059296255E+02  0.17538823212E+02  0.40902972901E+02  0.53704979314E+02  0.00000000000E+00 0. -1.
         21    1    1    2  506  505  0.31575946129E+02 -0.65430015782E+02  0.59863456026E+02  0.94136925309E+02  0.00000000000E+00 0. -1.
<scales pt_clust_3="66.64074" pt_clust_4="14000.00000" pt_clust_5="34.80189" pt_clust_6="102.52719"></scales>
<clustering>
<clus scale="   34.802">  1  5  2 -1</clus>
<clus scale="   66.641">  1  3  2 -1</clus>
<clus scale="  102.527">  1  6  2 -1</clus>
<clus scale="   34.802">  1  3  2 -1</clus>
</clustering>
</event>
<event>
 6    0  0.1555973E+002  0.8062306E+02  0.7546771E-02  0.1327293E+00
         21   -1    0    0  503  501  0.00000000000E+00  0.00000000000E+00  0.37001665651E+03  0.37001665651E+03  0.00000000000E+00 0.  1.
         21   -1    0    0  506  502 -0.00000000000E+00 -0.00000000000E+00 -0.85425090553E+03  0.85425090553E+03  0.00000000000E+00 0.  1.
         21    1    1    2  503  505 -0.83176113253E+01  0.63444467666E+02  0.83834468625E+02  0.10546374384E+03  0.00000000000E+00 0.  1.
         21    1    1    2  504  502  0.32281518252E+02 -0.46830841028E+02 -0.77546876772E+03  0.77755194926E+03  0.00000000000E+00 0.  1.
         21    1    1    2  505  504 -0.59542039060E+02  0.73840930968E+02 -0.17307752041E+02  0.96422485875E+02  0.00000000000E+00 0. -1.
         21    1    1    2  506  501  0.35578132132E+02 -0.90454557606E+02  0.22470780212E+03  0.24482938306E+03  0.00000000000E+00 0.  1.
<scales pt_clust_3="14000.00000" pt_clust_4="56.87903" pt_clust_5="53.45931" pt_clust_6="80.62306"></scales>
<clustering>
<clus scale="   56.879">  2  4  1 -1</clus>
<clus scale="   53.459">  2  5  1 -1</clus>
<clus scale="   80.623">  1  6  2 -1</clus>
<clus scale="   80.623">  1  3  2 -1</clus>
</clustering>
</event>
<event>
 6    0  0.1555973E+002  0.9872448E+02  0.7546771E-02  0.1283001E+00
         21   -1    0    0  503  501  0.00000000000E+00  0.00000000000E+00  0.18080220211E+03  0.18080220211E+03  0.00000000000E+00 0.  1.
         21   -1    0    0  506  502 -0.00000000000E+00 -0.00000000000E+00 -0.14865473723E+04  0.14865473723E+04  0.00000000000E+00 0. -1.
         21    1    1    2  503  504  0.41332545346E+01  0.10139960734E+03  0.91191703759E+02  0.13643639909E+03  0.00000000000E+00 0.  1.
         21    1    1    2  504  502 -0.46082023851E+01 -0.91924846274E+02 -0.16194699075E+02  0.93454166145E+02  0.00000000000E+00 0. -1.
         21    1    1    2  505  501  0.28391162487E+02 -0.24688512208E+02  0.15617968135E+02  0.40736981615E+02  0.00000000000E+00 0. -1.
         21    1    1    2  506  505 -0.27916214637E+02  0.15213751142E+02 -0.13963601430E+04  0.13967220275E+04  0.00000000000E+00 0. -1.
<scales pt_clust_3="98.72448" pt_clust_4="14000.00000" pt_clust_5="33.30534" pt_clust_6="31.79266"></scales>
<clustering>
<clus scale="   31.793">  2  6  1 -1</clus>
<clus scale="   33.305">  2  5  1 -1</clus>
<clus scale="   98.724">  1  3  2 -1</clus>
<clus scale="   98.724">  1  3  2 -1</clus>
</clustering>
</event>
<event>
 6    0  0.1555973E+002  0.9473719E+02  0.7546771E-02  0.1291769E+00
         21   -1    0    0  503  501  0.00000000000E+00  0.00000000000E+00  0.15000700469E+03  0.15000700469E+03  0.00000000000E+00 0.  1.
         21   -1    0    0  504  502 -0.00000000000E+00 -0.00000000000E+00 -0.52841156732E+03  0.52841156732E+03  0.00000000000E+00 0.  1.
         21    1    1    2  503  506  0.75561502806E+02  0.88045141551E+02  0.26933607174E+02  0.11910880258E+03  0.00000000000E+00 0.  1.
         21    1    1    2  504  501 -0.83335048095E+01 -0.30525842443E+02  0.23606125723E+02  0.39478139912E+02  0.00000000000E+00 0.  1.
         21    1    1    2  505  502  0.13019127866E+02 -0.29281040464E+02 -0.43345847977E+03  0.43464138173E+03  0.00000000000E+00 0.  1.
         21    1    1    2  506  505 -0.80247125863E+02 -0.28238258644E+02  0.45141842446E+01  0.85190247798E+02  0.00000000000E+00 0.  1.
<scales pt_clust_3="94.73719" pt_clust_4="31.64292" pt_clust_5="32.16743" pt_clust_6="14000.00000"></scales>
<clustering>
<clus scale="   31.643">  1  4  2 -1</clus>
<clus scale="   32.167">  2  5  1 -1</clus>
<clus scale="   94.737">  1  3  2 -1</clus>
<clus scale="   31.643">  1  3  2 -1</clus>
</clustering>
</event>
<event>
 6    0  0.1555973E+002  0.1424864E+03  0.7546771E-02  0.1210022E+00
         21   -1    0    0  504  501  0.00000000000E+00  0.00000000000E+00  0.19906678324E+04  0.19906678324E+04  0.00000000000E+00 0. -1.
         21   -1    0    0  503  502 -0.00000000000E+00 -0.00000000000E+00 -0.36142717733E+02  0.36142717733E+02  0.00000000000E+00 0. -1.
         21    1    1    2  503  506 -0.60755447276E+02  0.95136749107E+01  0.69345003577E+03  0.69617144907E+03  0.00000000000E+00 0.  1.
         21    1    1    2  504  505  0.11566658582E+02  0.62743086225E+02  0.54851333815E+03  0.55221134051E+03  0.00000000000E+00 0. -1.
         21    1    1    2  505  502  0.12743152581E+03 -0.45136879633E+02  0.12203370116E+03  0.18212181608E+03  0.00000000000E+00 0. -1.
         21    1    1    2  506  501 -0.78242737114E+02 -0.27119881504E+02  0.59052803963E+03  0.59630594452E+03  0.00000000000E+00 0. -1.
<scales pt_clust_3="41.03645" pt_clust_4="63.80033" pt_clust_5="134.29342" pt_clust_6="41.03645"></scales>
<clustering>
<clus scale="   41.036">  3  6 -1 -1</clus>
<clus scale="   63.800">  1  4  2 -1</clus>
<clus scale="  134.293">  2  5  1 -1</clus>
<clus scale="   63.800">  1  3  2 -1</clus>
</clustering>
</event>
<event>
 6    0  0.1555973E+002  0.1095551E+03  0.7546771E-02  0.1261396E+00
         21   -1    0    0  506  501  0.00000000000E+00  0.00000000000E+00  0.85277625897E+03  0.85277625897E+03  0.00000000000E+00 0.  1.
         21   -1    0    0  505  502 -0.00000000000E+00 -0.00000000000E+00 -0.57556849489E+02  0.57556849489E+02  0.00000000000E+00 0.  1.
         21    1    1    2  503  501  0.30421301891E+02 -0.20685978294E+02  0.78727989400E+02  0.86899146265E+02  0.00000000000E+00 0. -1.
         21    1    1    2  504  503 -0.74010848299E+02  0.13274891885E+02  0.30770397580E+03  0.31675789673E+03  0.00000000000E+00 0.  1.
         21    1    1    2  505  504  0.85789510467E+02 -0.75049797393E+02  0.31603369610E+02  0.11828391761E+03  0.00000000000E+00 0.  1.
         21    1    1    2  506  502 -0.42199964059E+02  0.82460883802E+02  0.37718407468E+03  0.38839214785E+03  0.00000000000E+00 0.  1.
<scales pt_clust_3="36.78811" pt_clust_4="61.86784" pt_clust_5="109.55509" pt_clust_6="14000.00000"></scales>
<clustering>
<clus scale="   36.788">  1  3  2 -1</clus>
<clus scale="   61.868">  1  4  2 -1</clus>
<clus scale="  109.555">  2  5  1 -1</clus>
<clus scale="   36.788">  1  3  2 -1</clus>
</clustering>
</event>
<event>
 6    0  0.1555973E+002  0.1118437E+03  0.7546771E-02  0.1257193E+00
         21   -1    0    0  503  501  0.00000000000E+00  0.00000000000E+00  0.13092692248E+03  0.13092692248E+03  0.00000000000E+00 0. -1.
         21   -1    0    0  504  502 -0.00000000000E+00 -0.00000000000E+00 -0.14680639429E+04  0.14680639429E+04  0.00000000000E+00 0.  1.
         21    1    1    2  503  506  0.19823045810E-01 -0.40366009665E+02 -0.14913516450E+02  0.43032872344E+02  0.00000000000E+00 0. -1.
         21    1    1    2  504  505  0.74782410765E+01  0.53411478760E+02  0.42245028884E+01  0.54097657782E+02  0.00000000000E+00 0. -1.
         21    1    1    2  505  501 -0.35428366119E+01  0.89904024717E+02  0.62209667489E+02  0.10938614209E+03  0.00000000000E+00 0. -1.
         21    1    1    2  506  502 -0.39552275104E+01 -0.10294949381E+03 -0.13886576744E+04  0.13924741932E+04  0.00000000000E+00 0.  1.
<scales pt_clust_3="40.36601" pt_clust_4="32.46793" pt_clust_5="32.46793" pt_clust_6="103.68406"></scales>
<clustering>
<clus scale="   32.468">  4  5 -1 -1</clus>
<clus scale="   40.366">  1  3  2 -1</clus>
<clus scale="  103.684">  2  6  1 -1</clus>
<clus scale="   40.366">  1  3  2 -1</clus>
</clustering>
</event>
<event>
 6    0  0.1555973E+002  0.9187107E+02  0.7546771E-02  0.1298383E+00
         21   -1    0    0  504  501  0.00000000000E+00  0.00000000000E+00  0.38887886686E+03  0.38887886686E+03  0.00000000000E+00 0.  1.
         21   -1    0    0  506  502 -0.00000000000E+00 -0.00000000000E+00 -0.55382862465E+03  0.55382862465E+03  0.00000000000E+00 0.  1.
         21    1    1    2  503  502 -0.24360834889E+02 -0.34518361789E+02  0.28689994676E+02  0.51069397604E+02  0.00000000000E+00 0.  1.
         21    1    1    2  504  503  0.11273649394E+03  0.64390154947E+02 -0.32909981899E+01  0.12987085812E+03  0.00000000000E+00 0.  1.
         21    1    1    2  505  501 -0.63249351894E+02 -0.61670347503E+02  0.27798475953E+03  0.29168345652E+03  0.00000000000E+00 0.  1.
         21    1    1    2  506  505 -0.25126307154E+02  0.31798554345E+02 -0.46833351381E+03  0.47008377926E+03  0.00000000000E+00 0.  1.
<scales pt_clust_3="41.05214" pt_clust_4="91.87107" pt_clust_5="14000.00000" pt_clust_6="40.52751"></scales>
<clustering>
<clus scale="   40.528">  2  6  1 -1</clus>
<clus scale="   41.052">  2  3  1 -1</clus>
<clus scale="   91.871">  2  4  1 -1</clus>
<clus scale="   91.871">  1  3  2 -1</clus>
</clustering>
</event>
<event>
 6    0  0.1555973E+002  0.1814899E+03  0.7546771E-02  0.1166369E+00
         21   -1    0    0  504  501  0.00000000000E+00  0.00000000000E+00  0.50092166416E+03  0.50092166416E+03  0.00000000000E+00 0.  1.
         21   -1    0    0  503  502 -0.00000000000E+00 -0.00000000000E+00 -0.83486510808E+02  0.83486510808E+02  0.00000000000E+00 0. -1.
         21    1    1    2  503  501 -0.18188426961E+03 -0.30720360749E+02  0.21368904457E+03  0.28229175664E+03  0.00000000000E+00 0.  1.
         21    1    1    2  504  506  0.39062483495E+02 -0.18183061043E+02  0.32790841491E+02  0.54145550245E+02  0.00000000000E+00 0. -1.
         21    1    1    2  505  502  0.17428837392E+02  0.28661481883E+02 -0.17467264705E+01  0.33590117147E+02  0.00000000000E+00 0.  1.
         21    1    1    2  506  505  0.12539294873E+03  0.20241939908E+02  0.17270199376E+03  0.21438075093E+03  0.00000000000E+00 0. -1.
<scales pt_clust_3="173.52047" pt_clust_4="30.97984" pt_clust_5="33.54467" pt_clust_6="30.97984"></scales>
<clustering>
<clus scale="   30.980">  4  6 -1 -1</clus>
<clus scale="   33.545">  2  5  1 -1</clus>
<clus scale="  173.520">  2  3  1 -1</clus>
<clus scale="  181.490">  1  3  2 -1</clus>
</clustering>
</event>
<event>
 6    0  0.1555973E+002  0.1273213E+03  0.7546771E-02  0.1231485E+00
         21   -1    0    0  503  501  0.00000000000E+00  0.00000000000E+00  0.84168310132E+03  0.84168310132E+03  0.00000000000E+00 0.  1.
         21   -1    0    0  504  502 -0.00000000000E+00 -0.00000000000E+00 -0.77232383786E+02  0.77232383786E+02  0.00000000000E+00 0.  1.
         21    1    1    2  503  502 -0.44564159529E+02  0.83878833459E+02  0.47096563495E+03  0.48044797046E+03  0.00000000000E+00 0.  1.
         21    1    1    2  504  505 -0.23847441678E+02 -0.13267138688E+03  0.48204547984E+01  0.13488378018E+03  0.00000000000E+00 0.  1.
         21    1    1    2  505  506  0.42083274464E+02  0.32542470176E+02  0.10916593288E+03  0.12143811287E+03  0.00000000000E+00 0.  1.
         21    1    1    2  506  501  0.26328326743E+02  0.16250083246E+02  0.17949869490E+03  0.18214562159E+03  0.00000000000E+00 0.  1.
<scales pt_clust_3="127.32127" pt_clust_4="14000.00000" pt_clust_5="58.56882" pt_clust_6="30.93939"></scales>
<clustering>
<clus scale="   30.939">  1  6  2 -1</clus>
<clus scale="   58.569">  1  5  2 -1</clus>
<clus scale="  127.321">  1  3  2 -1</clus>
<clus scale="   30.939">  1  3  2 -1</clus>
</clustering>
</event>
<event>
 6    0  0.1555973E+002  0.1047542E+03  0.7546771E-02  0.1270605E+00
         21   -1    0    0  505  501  0.00000000000E+00  0.00000000000E+00  0.61239962138E+03  0.61239962138E+03  0.00000000000E+00 0.  1.
         21   -1    0    0  503  502 -0.00000000000E+00 -0.00000000000E+00 -0.24516148030E+04  0.24516148030E+04  0.00000000000E+00 0. -1.
         21    1    1    2  503  504  0.28093858620E+02 -0.16999488714E+02 -0.24055187232E+04  0.24057428323E+04  0.00000000000E+00 0. -1.
         21    1    1    2  504  501  0.64916325086E+02  0.75693194823E+02  0.34992903703E+03  0.36385975315E+03  0.00000000000E+00 0.  1.
         21    1    1    2  505  506 -0.12746603672E+03 -0.37591984058E+02  0.21646973080E+03  0.25400766157E+03  0.00000000000E+00 0.  1.
         21    1    1    2  506  502  0.34455853018E+02 -0.21101722051E+02 -0.95226268634E-01  0.40404177368E+02  0.00000000000E+00 0.  1.
<scales pt_clust_3="32.83668" pt_clust_4="14000.00000" pt_clust_5="104.75416" pt_clust_6="54.86400"></scales>
<clustering>
<clus scale="   32.837">  2  3  1 -1</clus>
<clus scale="   54.864">  2  6  1 -1</clus>
<clus scale="  104.754">  2  5  1 -1</clus>
<clus scale="  104.754">  1  3  2 -1</clus>
</clustering>
</event>
<event>
 6    0  0.1555973E+002  0.1311190E+03  0.7546771E-02  0.1225805E+00
         21   -1    0    0  504  501  0.00000000000E+00  0.00000000000E+00  0.48823039483E+03  0.48823039483E+03  0.00000000000E+00 0. -1.
         21   -1    0    0  503  502 -0.00000000000E+00 -0.00000000000E+00 -0.24818235391E+03  0.24818235391E+03  0.00000000000E+00 0.  1.
         21    1    1    2  503  505  0.39065312792E+02  0.10828197696E+03 -0.19667588089E+03  0.22788700560E+03  0.00000000000E+00 0.  1.
         21    1    1    2  504  506 -0.11592897697E+02 -0.11848451383E+03  0.28765670856E+03  0.31131873904E+03  0.00000000000E+00 0. -1.
         21    1    1    2  505  501 -0.25693816122E+02  0.67162966452E+02  0.88751513634E+02  0.11422726217E+03  0.00000000000E+00 0.  1.
         21    1    1    2  506  502 -0.17785989728E+01 -0.56960429582E+02  0.60315699607E+02  0.82979741935E+02  0.00000000000E+00 0. -1.
<scales pt_clust_3="117.32611" pt_clust_4="40.50137" pt_clust_5="71.90992" pt_clust_6="40.50137"></scales>
<clustering>
<clus scale="   40.501">  4  6 -1 -1</clus>
<clus scale="   71.910">  1  5  2 -1</clus>
<clus scale="  117.326">  2  3  1 -1</clus>
<clus scale="   71.910">  1  3  2 -1</clus>
</clustering>
</event>
<event>
 6    0  0.1555973E+002  0.1968045E+03  0.7546771E-02  0.1152463E+00
         21   -1    0    0  506  501  0.00000000000E+00  0.00000000000E+00  0.23722665760E+03  0.23722665760E+03  0.00000000000E+00 0.  1.
         21   -1    0    0  505  502 -0.00000000000E+00 -0.00000000000E+00 -0.89248482447E+03  0.89248482447E+03  0.00000000000E+00 0.  1.
         21    1    1    2  503  501  0.99325415368E+02 -0.18145704523E+03  0.16474438296E+03  0.26444831086E+03  0.00000000000E+00 0.  1.
         21    1    1    2  504  503 -0.97579110316E+02  0.27764523471E+02 -0.31120658618E+03  0.32732566477E+03  0.00000000000E+00 0.  1.
         21    1    1    2  505  504 -0.18052832998E+02  0.30897958879E+02 -0.42954505442E+02  0.55907764934E+02  0.00000000000E+00 0.  1.
         21    1    1    2  506  502  0.16306527946E+02  0.12279456288E+03 -0.46584145820E+03  0.48202974151E+03  0.00000000000E+00 0.  1.
<scales pt_clust_3="14000.00000" pt_clust_4="111.62521" pt_clust_5="35.78531" pt_clust_6="196.80452"></scales>
<clustering>
<clus scale="   35.785">  2  5  1 -1</clus>
<clus scale="  111.625">  2  4  1 -1</clus>
<clus scale="  196.805">  2  6  1 -1</clus>
<clus scale="  196.805">  1  3  2 -1</clus>
</clustering>
</event>
<event>
 6    0  0.1555973E+002  0.1115393E+03  0.7546771E-02  0.1257746E+00
         21   -1    0    0  503  501  0.00000000000E+00  0.00000000000E+00  0.98449708803E+03  0.98449708803E+03  0.00000000000E+00 0. -1.
         21   -1    0    0  504  502 -0.00000000000E+00 -0.00000000000E+00 -0.15425995734E+03  0.15425995734E+03  0.00000000000E+00 0.  1.
         21    1    1    2  503  506  0.25152991520E+02  0.38799617585E+02  0.31930518712E+03  0.32263584089E+03  0.00000000000E+00 0. -1.
         21    1    1    2  504  505  0.40971427911E+02 -0.10483502050E+03 -0.12406264954E+03  0.16751292618E+03  0.00000000000E+00 0.  1.
         21    1    1    2  505  501 -0.33534162679E+02 -0.20157132056E+02  0.22596681413E+03  0.22932913275E+03  0.00000000000E+00 0.  1.
         21    1    1    2  506  502 -0.32590256751E+02  0.86192534966E+02  0.40902777898E+03  0.41927914555E+03  0.00000000000E+00 0. -1.
<scales pt_clust_3="32.16575" pt_clust_4="14000.00000" pt_clust_5="39.12608" pt_clust_6="111.53934"></scales>
<clustering>
<clus scale="   39.126">  1  5  2 -1</clus>
<clus scale="   32.166">  1  3  2 -1</clus>
<clus scale="  111.539">  1  6  2 -1</clus>
<clus scale="   39.126">  1  3  2 -1</clus>
</clustering>
</event>
<event>
 6    0  0.1555973E+002  0.1650697E+03  0.7546771E-02  0.1183089E+00
         21   -1    0    0  506  501  0.00000000000E+00  0.00000000000E+00  0.25648933237E+04  0.25648933237E+04  0.00000000000E+00 0. -1.
         21   -1    0    0  503  502 -0.00000000000E+00 -0.00000000000E+00 -0.87466263268E+02  0.87466263268E+02  0.00000000000E+00 0.  1.
         21    1    1    2  503  505  0.41829228978E+02 -0.30305995250E+02  0.57916817954E+03  0.58146703943E+03  0.00000000000E+00 0. -1.
         21    1    1    2  504  501  0.88291448203E+01  0.55400636111E+02  0.66818179280E+03  0.67053269310E+03  0.00000000000E+00 0. -1.
         21    1    1    2  505  504  0.28805059657E+02 -0.14939298630E+03  0.12429909188E+04  0.12522677110E+04  0.00000000000E+00 0. -1.
         21    1    1    2  506  502 -0.79463433455E+02  0.12429834544E+03 -0.12913830672E+02  0.14809214347E+03  0.00000000000E+00 0.  1.
<scales pt_clust_3="41.35912" pt_clust_4="56.09977" pt_clust_5="41.35912" pt_clust_6="149.02875"></scales>
<clustering>
<clus scale="   41.359">  3  5 -1 -1</clus>
<clus scale="   56.100">  1  4  2 -1</clus>
<clus scale="  149.029">  2  6  1 -1</clus>
<clus scale="   56.100">  1  3  2 -1</clus>
</clustering>
</event>
<event>
 6    0  0.1555973E+002  0.1222667E+03  0.7546771E-02  0.1239404E+00
         21   -1    0    0  503  501  0.00000000000E+00  0.00000000000E+00  0.31253784784E+03  0.31253784784E+03  0.00000000000E+00 0. -1.
         21   -1    0    0  506  502 -0.00000000000E+00 -0.00000000000E+00 -0.19298135827E+03  0.19298135827E+03  0.00000000000E+00 0. -1.
         21    1    1    2  503  505  0.33435643662E+02 -0.19442398170E+02  0.63297635518E+02  0.74179106060E+02  0.00000000000E+00 0. -1.
         21    1    1    2  504  501  0.28654680281E+02  0.31964904623E+02  0.19161684790E+02  0.47010807200E+02  0.00000000000E+00 0. -1.
         21    1    1    2  505  502  0.22898690983E+02 -0.87123454313E+02  0.18048305339E+03  0.20171509339E+03  0.00000000000E+00 0. -1.
         21    1    1    2  506  504 -0.84989014927E+02  0.74600947859E+02 -0.14338588413E+03  0.18261419947E+03  0.00000000000E+00 0. -1.
<scales pt_clust_3="30.44458" pt_clust_4="42.92838" pt_clust_5="30.44458" pt_clust_6="113.09462"></scales>
<clustering>
<clus scale="   30.445">  3  5 -1 -1</clus>
<clus scale="   42.928">  1  4  2 -1</clus>
<clus scale="  113.095">  2  6  1 -1</clus>
<clus scale="   42.928">  1  3  2 -1</clus>
</clustering>
</event>
<event>
 6    0  0.1555973E+002  0.9214141E+02  0.7546771E-02  0.1297747E+00
         21   -1    0    0  506  501  0.00000000000E+00  0.00000000000E+00  0.41983824895E+03  0.41983824895E+03  0.00000000000E+00 0. -1.
         21   -1    0    0  505  502 -0.00000000000E+00 -0.00000000000E+00 -0.71471627223E+02  0.71471627223E+02  0.00000000000E+00 0. -1.
         21    1    1    2  503  502  0.56847587592E+02  0.37470397678E+02  0.37648149848E+02  0.77801427391E+02  0.00000000000E+00 0. -1.
         21    1    1    2  504  503  0.54413641356E+02 -0.98286880863E+01  0.13417344772E+03  0.14512050698E+03  0.00000000000E+00 0. -1.
         21    1    1    2  505  501 -0.12995438339E+03 -0.59128843083E+02  0.76768397555E+02  0.16210412922E+03  0.00000000000E+00 0. -1.
         21    1    1    2  506  504  0.18693154445E+02  0.31487133492E+02  0.99776626609E+02  0.10628381258E+03  0.00000000000E+00 0. -1.
<scales pt_clust_3="14000.00000" pt_clust_4="62.78427" pt_clust_5="92.14141" pt_clust_6="36.61794"></scales>
<clustering>
<clus scale="   36.618">  1  6  2 -1</clus>
<clus scale="   62.784">  1  4  2 -1</clus>
<clus scale="   92.141">  1  5  2 -1</clus>
<clus scale="   36.618">  1  3  2 -1</clus>
</clustering>
</event>
<event>
 6    0  0.1555973E+002  0.1000830E+03  0.7546771E-02  0.1280121E+00
         21   -1    0    0  503  501  0.00000000000E+00  0.00000000000E+00  0.31805521737E+03  0.31805521737E+03  0.00000000000E+00 0. -1.
         21   -1    0    0  506  502 -0.00000000000E+00 -0.00000000000E+00 -0.41590704333E+03  0.41590704333E+03  0.00000000000E+00 0. -1.
         21    1    1    2  503  504 -0.21530924902E+01 -0.10032970776E+03  0.24179539784E+03  0.26179323995E+03  0.00000000000E+00 0. -1.
         21    1    1    2  504  502 -0.58450618992E+02  0.71824648664E+02 -0.36888134910E+03  0.38032710228E+03  0.00000000000E+00 0. -1.
         21    1    1    2  505  501  0.37142652121E+02  0.53919571115E+01  0.42174964568E+02  0.56456863572E+02  0.00000000000E+00 0. -1.
         21    1    1    2  506  505  0.23461059361E+02  0.23113101987E+02 -0.12940839262E+02  0.35385054905E+02  0.00000000000E+00 0.  1.
<scales pt_clust_3="100.08301" pt_clust_4="14000.00000" pt_clust_5="38.01740" pt_clust_6="32.93382"></scales>
<clustering>
<clus scale="   32.934">  2  6  1 -1</clus>
<clus scale="   38.017">  1  5  2 -1</clus>
<clus scale="  100.083">  1  3  2 -1</clus>
<clus scale="   38.017">  1  3  2 -1</clus>
</clustering>
</event>
<event>
 6    0  0.1555973E+002  0.1226165E+03  0.7546771E-02  0.1238842E+00
         21   -1    0    0  505  501  0.00000000000E+00  0.00000000000E+00  0.66282821936E+03  0.66282821936E+03  0.00000000000E+00 0.  1.
         21   -1    0    0  503  502 -0.00000000000E+00 -0.00000000000E+00 -0.16758555537E+03  0.16758555537E+03  0.00000000000E+00 0.  1.
         21    1    1    2  503  501  0.82070343146E+02  0.28750237131E+02  0.18453742292E+03  0.20400043583E+03  0.00000000000E+00 0.  1.
         21    1    1    2  504  506 -0.29444446251E+02 -0.75934057781E+02  0.28337193516E+03  0.29484336550E+03  0.00000000000E+00 0.  1.
         21    1    1    2  505  504 -0.17951066772E+02 -0.65302105864E+02  0.14814797517E+03  0.16289391755E+03  0.00000000000E+00 0.  1.
         21    1    1    2  506  502 -0.34674830122E+02  0.11248592651E+03 -0.12081466926E+03  0.16867605585E+03  0.00000000000E+00 0.  1.
<scales pt_clust_3="86.96044" pt_clust_4="30.51791" pt_clust_5="30.51791" pt_clust_6="117.96104"></scales>
<clustering>
<clus scale="   30.518">  4  5 -1 -1</clus>
<clus scale="   86.960">  1  3  2 -1</clus>
<clus scale="  117.961">  2  6  1 -1</clus>
<clus scale="   86.960">  1  3  2 -1</clus>
</clustering>
</event>
<event>
 6    0  0.1555973E+002  0.1003450E+03  0.7546771E-02  0.1279572E+00
         21   -1    0    0  503  501  0.00000000000E+00  0.00000000000E+00  0.62715425022E+03  0.62715425022E+03  0.00000000000E+00 0. -1.
         21   -1    0    0  505  502 -0.00000000000E+00 -0.00000000000E+00 -0.11481133126E+03  0.11481133126E+03  0.00000000000E+00 0.  1.
         21    1    1    2  503  506  0.62977947265E+02  0.22343372218E+01  0.31213505337E+03  0.31843289033E+03  0.00000000000E+00 0. -1.
         21    1    1    2  504  502 -0.98233890517E+02  0.27740113648E+02 -0.57046507567E+02  0.11693466200E+03  0.00000000000E+00 0.  1.
         21    1    1    2  505  501  0.95767969553E+02  0.66617518256E+01  0.14393074815E+03  0.17300850613E+03  0.00000000000E+00 0.  1.
         21    1    1    2  506  504 -0.60512026301E+02 -0.36636202696E+02  0.11332362501E+03  0.13358952302E+03  0.00000000000E+00 0. -1.
<scales pt_clust_3="63.01757" pt_clust_4="14000.00000" pt_clust_5="100.34505" pt_clust_6="50.44046"></scales>
<clustering>
<clus scale="   63.018">  1  3  2 -1</clus>
<clus scale="   50.440">  1  6  2 -1</clus>
<clus scale="  100.345">  1  5  2 -1</clus>
<clus scale="   63.018">  1  3  2 -1</clus>
</clustering>
</event>
<event>
 6    0  0.1555973E+002  0.1613970E+03  0.7546771E-02  0.1187129E+00
         21   -1    0    0  506  501  0.00000000000E+00  0.00000000000E+00  0.95695083771E+02  0.95695083771E+02  0.00000000000E+00 0. -1.
         21   -1    0    0  503  502 -0.00000000000E+00 -0.00000000000E+00 -0.44344123173E+03  0.44344123173E+03  0.00000000000E+00 0. -1.
         21    1    1    2  503  505 -0.42875555038E+02 -0.18523889826E+02 -0.63788949564E+02  0.79059963323E+02  0.00000000000E+00 0.  1.
         21    1    1    2  504  502  0.25362437527E+02  0.35803269897E+02 -0.15364021682E+03  0.15978248839E+03  0.00000000000E+00 0. -1.
         21    1    1    2  505  501 -0.51426492709E+02 -0.12756949294E+03 -0.88988140452E+02  0.16382169826E+03  0.00000000000E+00 0. -1.
         21    1    1    2  506  504  0.68939610220E+02  0.11029011287E+03 -0.41328841127E+02  0.13647216552E+03  0.00000000000E+00 0. -1.
<scales pt_clust_3="42.87885" pt_clust_4="43.87627" pt_clust_5="42.87885" pt_clust_6="143.64709"></scales>
<clustering>
<clus scale="   42.879">  3  5 -1 -1</clus>
<clus scale="   43.876">  2  4  1 -1</clus>
<clus scale="  143.647">  1  6  2 -1</clus>
<clus scale="  143.647">  1  3  2 -1</clus>
</clustering>
</event>
<event>
 6    0  0.1555973E+002  0.7284025E+02  0.7546771E-02  0.1350693E+00
         21   -1    0    0  504  501  0.00000000000E+00  0.00000000000E+00  0.12614469766E+03  0.12614469766E+03  0.00000000000E+00 0. -1.
         21   -1    0    0  505  502 -0.00000000000E+00 -0.00000000000E+00 -0.15319853345E+03  0.15319853345E+03  0.00000000000E+00 0. -1.
         21    1    1    2  503  502 -0.13815265477E+02 -0.60478735304E+02  0.12000819216E+02  0.63186696749E+02  0.00000000000E+00 0. -1.
         21    1    1    2  504  503  0.40440606671E+02 -0.13650670072E+02  0.76409572560E+00  0.42689194225E+02  0.00000000000E+00 0. -1.
         21    1    1    2  505  506 -0.70691926516E+02 -0.45207528393E+01 -0.43697453163E+02  0.83230121313E+02  0.00000000000E+00 0. -1.
         21    1    1    2  506  501  0.44066585322E+02  0.78650158215E+02  0.38787024346E+01  0.90237218828E+02  0.00000000000E+00 0. -1.
<scales pt_clust_3="14000.00000" pt_clust_4="42.68236" pt_clust_5="63.43565" pt_clust_6="72.84025"></scales>
<clustering>
<clus scale="   42.682">  1  4  2 -1</clus>
<clus scale="   63.436">  2  5  1 -1</clus>
<clus scale="   72.840">  2  6  1 -1</clus>
<clus scale="   42.682">  1  3  2 -1</clus>
</clustering>
</event>
<event>
 6    0  0.1555973E+002  0.1387110E+03  0.7546771E-02  0.1215074E+00
         21   -1    0    0  504  501  0.00000000000E+00  0.00000000000E+00  0.23633477570E+03  0.23633477570E+03  0.00000000000E+00 0.  1.
         21   -1    0    0  503  502 -0.00000000000E+00 -0.00000000000E+00 -0.10201155867E+04  0.10201155867E+04  0.00000000000E+00 0. -1.
         21    1    1    2  503  506 -0.26107273856E+02 -0.12536008668E+03 -0.98232689585E+03  0.99063760851E+03  0.00000000000E+00 0. -1.
         21    1    1    2  504  502 -0.29323169085E+02  0.20432825947E+02  0.10978238620E+02  0.37388104319E+02  0.00000000000E+00 0.  1.
         21    1    1    2  505  501  0.63990789348E+02  0.73237674615E+02  0.13342824613E+03  0.16511109887E+03  0.00000000000E+00 0.  1.
         21    1    1    2  506  505 -0.85603464066E+01  0.31689586115E+02  0.54139600118E+02  0.63313550680E+02  0.00000000000E+00 0.  1.
<scales pt_clust_3="127.77668" pt_clust_4="35.74001" pt_clust_5="31.36051" pt_clust_6="31.36051"></scales>
<clustering>
<clus scale="   31.361">  5  6 -1 -1</clus>
<clus scale="   35.740">  1  4  2 -1</clus>
<clus scale="  127.777">  2  3  1 -1</clus>
<clus scale="   35.740">  1  3  2 -1</clus>
</clustering>
</event>
<event>
 6    0  0.1555973E+002  0.1468297E+03  0.7546771E-02  0.1204424E+00
         21   -1    0    0  506  501  0.00000000000E+00  0.00000000000E+00  0.40769870853E+03  0.40769870853E+03  0.00000000000E+00 0. -1.
         21   -1    0    0  505  502 -0.00000000000E+00 -0.00000000000E+00 -0.33017468599E+03  0.33017468599E+03  0.00000000000E+00 0. -1.
         21    1    1    2  503  502 -0.43258265394E+02  0.58393261556E+02 -0.59251532982E+02  0.93764570498E+02  0.00000000000E+00 0. -1.
         21    1    1    2  504  501  0.92010396797E+02  0.85871290637E+02  0.32507597743E+03  0.34858884489E+03  0.00000000000E+00 0. -1.
         21    1    1    2  505  504 -0.82580782735E+02 -0.13994831523E+03 -0.20158235953E+03  0.25892192702E+03  0.00000000000E+00 0. -1.
         21    1    1    2  506  503  0.33828651332E+02 -0.43162369579E+01  0.13281937622E+02  0.36598052125E+02  0.00000000000E+00 0.  1.
<scales pt_clust_3="71.61520" pt_clust_4="14000.00000" pt_clust_5="146.82965" pt_clust_6="34.10290"></scales>
<clustering>
<clus scale="   34.103">  1  6  2 -1</clus>
<clus scale="   71.615">  2  3  1 -1</clus>
<clus scale="  146.830">  2  5  1 -1</clus>
<clus scale="   34.103">  1  3  2 -1</clus>
</clustering>
</event>
<event>
 6    0  0.1555973E+002  0.1343368E+03  0.7546771E-02  0.1221159E+00
         21   -1    0    0  503  501  0.00000000000E+00  0.00000000000E+00  0.36850082345E+03  0.36850082345E+03  0.00000000000E+00 0.  1.
         21   -1    0    0  501  502 -0.00000000000E+00 -0.00000000000E+00 -0.14008869003E+03  0.14008869003E+03  0.00000000000E+00 0.  1.
         21    1    1    2  503  506  0.23436350480E+02 -0.33947271844E+02  0.46719191831E+02  0.62324655433E+02  0.00000000000E+00 0.  1.
         21    1    1    2  504  502  0.56309936520E+01 -0.52859870948E+02 -0.66974190405E+02  0.85506819766E+02  0.00000000000E+00 0.  1.
         21    1    1    2  505  504 -0.10542151810E+03  0.11413016206E+03  0.82629793107E+02  0.17597463760E+03  0.00000000000E+00 0.  1.
         21    1    1    2  506  505  0.76354173971E+02 -0.27323019265E+02  0.16603733888E+03  0.18478340068E+03  0.00000000000E+00 0.  1.
<scales pt_clust_3="32.56554" pt_clust_4="53.15895" pt_clust_5="126.33891" pt_clust_6="32.56554"></scales>
<clustering>
<clus scale="   32.566">  3  6 -1 -1</clus>
<clus scale="   53.159">  2  4  1 -1</clus>
<clus scale="  126.339">  2  5  1 -1</clus>
<clus scale="  134.337">  1  3  2 -1</clus>
</clustering>
</event>
<event>
 6    0  0.1555973E+002  0.1504420E+03  0.7546771E-02  0.1199931E+00
         21   -1    0    0  504  501  0.00000000000E+00  0.00000000000E+00  0.99015175666E+02  0.99015175666E+02  0.00000000000E+00 0.  1.
         21   -1    0    0  505  502 -0.00000000000E+00 -0.00000000000E+00 -0.65037520895E+03  0.65037520895E+03  0.00000000000E+00 0.  1.
         21    1    1    2  503  502 -0.51233721508E+02 -0.75997074992E+02 -0.25795660898E+01  0.91690260051E+02  0.00000000000E+00 0.  1.
         21    1    1    2  504  506  0.24661170991E+02 -0.56074241477E+02 -0.27473783452E+02  0.67136448290E+02  0.00000000000E+00 0.  1.
         21    1    1    2  505  501  0.10699021662E+03  0.13339007183E+03 -0.45584645693E+03  0.48686323543E+03  0.00000000000E+00 0.  1.
         21    1    1    2  506  503 -0.80417666104E+02 -0.13187553611E+01 -0.65460226808E+02  0.10370044084E+03  0.00000000000E+00 0.  1.
<scales pt_clust_3="14000.00000" pt_clust_4="61.25760" pt_clust_5="150.44196" pt_clust_6="75.93088"></scales>
<clustering>
<clus scale="   61.258">  1  4  2 -1</clus>
<clus scale="   75.931">  1  6  2 -1</clus>
<clus scale="  150.442">  2  5  1 -1</clus>
<clus scale="   61.258">  1  3  2 -1</clus>
</clustering>
</event>
<event>
 6    0  0.1555973E+002  0.7112586E+02  0.7546771E-02  0.1356306E+00
         21   -1    0    0  506  501  0.00000000000E+00  0.00000000000E+00  0.74833749725E+02  0.74833749725E+02  0.00000000000E+00 0. -1.
         21   -1    0    0  503  502 -0.00000000000E+00 -0.00000000000E+00 -0.15749260317E+04  0.15749260317E+04  0.00000000000E+00 0. -1.
         21    1    1    2  503  505  0.88538368550E+02 -0.32085386148E+02 -0.11314535507E+03  0.14720864812E+03  0.00000000000E+00 0. -1.
         21    1    1    2  504  502 -0.28611556507E+02  0.44205183627E+02 -0.13647101258E+04  0.13657256118E+04  0.00000000000E+00 0. -1.
         21    1    1    2  505  501  0.61880601871E+01 -0.37158087387E+02 -0.48497424186E+02  0.61408596302E+02  0.00000000000E+00 0. -1.
         21    1    1    2  506  504 -0.66114872230E+02  0.25038289907E+02  0.26260622987E+02  0.75416925230E+02  0.00000000000E+00 0. -1.
<scales pt_clust_3="71.12586" pt_clust_4="52.40014" pt_clust_5="37.66982" pt_clust_6="14000.00000"></scales>
<clustering>
<clus scale="   37.670">  1  5  2 -1</clus>
<clus scale="   52.400">  2  4  1 -1</clus>
<clus scale="   71.126">  2  3  1 -1</clus>
<clus scale="   37.670">  1  3  2 -1</clus>
</clustering>
</event>
<event>
 6    0  0.1555973E+002  0.9594761E+02  0.7546771E-02  0.1289056E+00
         21   -1    0    0  505  501  0.00000000000E+00  0.00000000000E+00  0.63765724797E+03  0.63765724797E+03  0.00000000000E+00 0.  1.
         21   -1    0    0  501  502 -0.00000000000E+00 -0.00000000000E+00 -0.94136860203E+02  0.94136860203E+02  0.00000000000E+00 0.  1.
         21    1    1    2  503  504 -0.76029564710E+02 -0.63494776230E+02  0.32611921099E+03  0.34083107413E+03  0.00000000000E+00 0.  1.
         21    1    1    2  504  502  0.54420373680E+02  0.79046659734E+02 -0.52598764486E+02  0.10943756902E+03  0.00000000000E+00 0.  1.
         21    1    1    2  505  506  0.21293657171E+02  0.22082554546E+02  0.19720752098E+03  0.19957922082E+03  0.00000000000E+00 0.  1.
         21    1    1    2  506  503  0.31553385839E+00 -0.37634438050E+02  0.72792420288E+02  0.81946244211E+02  0.00000000000E+00 0.  1.
<scales pt_clust_3="14000.00000" pt_clust_4="95.94761" pt_clust_5="30.67669" pt_clust_6="33.98903"></scales>
<clustering>
<clus scale="   30.677">  1  5  2 -1</clus>
<clus scale="   33.989">  1  6  2 -1</clus>
<clus scale="   95.948">  2  4  1 -1</clus>
<clus scale="   30.677">  1  3  2 -1</clus>
</clustering>
</event>
<event>
 6    0  0.1555973E+002  0.5911706E+02  0.7546771E-02  0.1401575E+00
         21   -1    0    0  505  501  0.00000000000E+00  0.00000000000E+00  0.34839111485E+03  0.34839111485E+03  0.00000000000E+00 0. -1.
         21   -1    0    0  506  502 -0.00000000000E+00 -0.00000000000E+00 -0.27791250466E+04  0.27791250466E+04  0.00000000000E+00 0.  1.
         21    1    1    2  503  504 -0.59659184803E+02 -0.77704663977E+02 -0.12295265177E+03  0.15720873930E+03  0.00000000000E+00 0. -1.
         21    1    1    2  504  501  0.55092808841E+02  0.11161415292E+01  0.11972238009E+03  0.13179496065E+03  0.00000000000E+00 0. -1.
         21    1    1    2  505  502 -0.37486473267E+02  0.53559311998E+02  0.20008096129E+03  0.21049044313E+03  0.00000000000E+00 0. -1.
         21    1    1    2  506  503  0.42052849228E+02  0.23029210450E+02 -0.26275846214E+04  0.26280220184E+04  0.00000000000E+00 0.  1.
<scales pt_clust_3="14000.00000" pt_clust_4="56.80677" pt_clust_5="59.11706" pt_clust_6="47.94566"></scales>
<clustering>
<clus scale="   47.946">  2  6  1 -1</clus>
<clus scale="   56.807">  1  4  2 -1</clus>
<clus scale="   59.117">  1  5  2 -1</clus>
<clus scale="   56.807">  1  3  2 -1</clus>
</clustering>
</event>
<event>
 6    0  0.1555973E+002  0.9582823E+02  0.7546771E-02  0.1289322E+00
         21   -1    0    0  506  501  0.00000000000E+00  0.00000000000E+00  0.10164922366E+03  0.10164922366E+03  0.00000000000E+00 0.  1.
         21   -1    0    0  503  502 -0.00000000000E+00 -0.00000000000E+00 -0.11946330521E+04  0.11946330521E+04  0.00000000000E+00 0.  1.
         21    1    1    2  503  501  0.61696744047E+02  0.17700874463E+02  0.18404694000E+02  0.66772314203E+02  0.00000000000E+00 0.  1.
         21    1    1    2  504  502 -0.23390181140E+02  0.80658590771E+02 -0.11111451257E+04  0.11143143180E+04  0.00000000000E+00 0.  1.
         21    1    1    2  505  504 -0.24123599468E+02 -0.33563347204E+02 -0.20093948826E+02  0.45958819679E+02  0.00000000000E+00 0.  1.
         21    1    1    2  506  505 -0.14182963439E+02 -0.64796118031E+02  0.19850552117E+02  0.69236823895E+02  0.00000000000E+00 0.  1.
<scales pt_clust_3="64.18574" pt_clust_4="83.99434" pt_clust_5="36.41502" pt_clust_6="36.41502"></scales>
<clustering>
<clus scale="   36.415">  5  6 -1 -1</clus>
<clus scale="   64.186">  1  3  2 -1</clus>
<clus scale="   83.994">  2  4  1 -1</clus>
<clus scale="   64.186">  1  3  2 -1</clus>
</clustering>
</event>
<event>
 6    0  0.1555973E+002  0.8517272E+02  0.7546771E-02  0.1314981E+00
         21   -1    0    0  504  501  0.00000000000E+00  0.00000000000E+00  0.83868600747E+03  0.83868600747E+03  0.00000000000E+00 0.  1.
         21   -1    0    0  506  502 -0.00000000000E+00 -0.00000000000E+00 -0.19823873422E+04  0.19823873422E+04  0.00000000000E+00 0.  1.
         21    1    1    2  503  501 -0.58415102299E+02  0.42089863980E+01  0.14574704220E+03  0.15707399547E+03  0.00000000000E+00 0.  1.
         21    1    1    2  504  505 -0.21444227270E+02  0.30804090545E+02  0.63891497284E+03  0.64001647588E+03  0.00000000000E+00 0.  1.
         21    1    1    2  505  502  0.10801967355E+03 -0.76353283424E+02 -0.44660500160E+02  0.13961602357E+03  0.00000000000E+00 0.  1.
         21    1    1    2  506  503 -0.28160343976E+02  0.41340206481E+02 -0.18837028496E+04  0.18843668547E+04  0.00000000000E+00 0.  1.
<scales pt_clust_3="14000.00000" pt_clust_4="37.53328" pt_clust_5="85.17272" pt_clust_6="50.08272"></scales>
<clustering>
<clus scale="   37.533">  1  4  2 -1</clus>
<clus scale="   50.083">  2  6  1 -1</clus>
<clus scale="   85.173">  2  5  1 -1</clus>
<clus scale="   37.533">  1  3  2 -1</clus>
</clustering>
</event>
<event>
 6    0  0.1555973E+002  0.1522969E+03  0.7546771E-02  0.1197679E+00
         21   -1    0    0  505  501  0.00000000000E+00  0.00000000000E+00  0.23250722934E+03  0.23250722934E+03  0.00000000000E+00 0.  1.
         21   -1    0    0  503  502 -0.00000000000E+00 -0.00000000000E+00 -0.10562706838E+04  0.10562706838E+04  0.00000000000E+00 0. -1.
         21    1    1    2  503  506 -0.23370442632E+02  0.62654430431E+02 -0.89164075328E+03  0.89414483623E+03  0.00000000000E+00 0. -1.
         21    1    1    2  504  501  0.83225681100E+02 -0.11147806326E+03  0.14138187195E+03  0.19834995916E+03  0.00000000000E+00 0.  1.
         21    1    1    2  505  502  0.47045273159E+02 -0.22297621687E+02 -0.98994517461E+01  0.52994724306E+02  0.00000000000E+00 0. -1.
         21    1    1    2  506  504 -0.10690051163E+03  0.71121254517E+02 -0.63605121371E+02  0.14328839344E+03  0.00000000000E+00 0. -1.
<scales pt_clust_3="66.64996" pt_clust_4="152.29694" pt_clust_5="52.06190" pt_clust_6="14000.00000"></scales>
<clustering>
<clus scale="   52.062">  1  5  2 -1</clus>
<clus scale="   66.650">  2  3  1 -1</clus>
<clus scale="  152.297">  1  4  2 -1</clus>
<clus scale="   52.062">  1  3  2 -1</clus>
</clustering>
</event>
<event>
 6    0  0.1555973E+002  0.7105679E+02  0.7546771E-02  0.1356536E+00
         21   -1    0    0  504  501  0.00000000000E+00  0.00000000000E+00  0.62133245998E+03  0.62133245998E+03  0.00000000000E+00 0.  1.
         21   -1    0    0  505  502 -0.00000000000E+00 -0.00000000000E+00 -0.33141924527E+02  0.33141924527E+02  0.00000000000E+00 0.  1.
         21    1    1    2  503  502  0.55209253418E+02  0.37183992083E+01  0.14711312912E+03  0.15717557353E+03  0.00000000000E+00 0.  1.
         21    1    1    2  504  503  0.36583702164E+02 -0.63374657326E+02  0.17836449492E+03  0.19279161678E+03  0.00000000000E+00 0.  1.
         21    1    1    2  505  506 -0.11862732984E+02  0.42304184270E+02  0.19795702969E+02  0.48189607766E+02  0.00000000000E+00 0.  1.
         21    1    1    2  506  501 -0.79930222598E+02  0.17352073848E+02  0.24291720845E+03  0.25631758643E+03  0.00000000000E+00 0.  1.
<scales pt_clust_3="54.16384" pt_clust_4="14000.00000" pt_clust_5="43.93596" pt_clust_6="71.05679"></scales>
<clustering>
<clus scale="   43.936">  2  5  1 -1</clus>
<clus scale="   54.164">  2  3  1 -1</clus>
<clus scale="   71.057">  1  6  2 -1</clus>
<clus scale="   71.057">  1  3  2 -1</clus>
</clustering>
</event>
<event>
 6    0  0.1555973E+002  0.1453889E+03  0.7546771E-02  0.1206256E+00
         21   -1    0    0  506  501  0.00000000000E+00  0.00000000000E+00  0.71325587923E+02  0.71325587923E+02  0.00000000000E+00 0. -1.
         21   -1    0    0  503  502 -0.00000000000E+00 -0.00000000000E+00 -0.93332788650E+03  0.93332788650E+03  0.00000000000E+00 0.  1.
         21    1    1    2  503  504 -0.26792508286E+02  0.15149249069E+02 -0.35713684178E+03  0.35846068404E+03  0.00000000000E+00 0.  1.
         21    1    1    2  504  505 -0.55282062068E+01 -0.36334584298E+02 -0.21020620510E+03  0.21339496654E+03  0.00000000000E+00 0.  1.
         21    1    1    2  505  501  0.11678524034E+02 -0.13035907817E+03 -0.23429437997E+03  0.26837237874E+03  0.00000000000E+00 0.  1.
         21    1    1    2  506  502  0.20642190458E+02  0.15154441340E+03 -0.60364871730E+02  0.16442544511E+03  0.00000000000E+00 0. -1.
<scales pt_clust_3="30.77886" pt_clust_4="34.39392" pt_clust_5="145.38891" pt_clust_6="14000.00000"></scales>
<clustering>
<clus scale="   30.779">  2  3  1 -1</clus>
<clus scale="   34.394">  2  4  1 -1</clus>
<clus scale="  145.389">  2  5  1 -1</clus>
<clus scale="  145.389">  1  3  2 -1</clus>
</clustering>
</event>
<event>
 6    0  0.1555973E+002  0.2437596E+03  0.7546771E-02  0.1117313E+00
         21   -1    0    0  503  501  0.00000000000E+00  0.00000000000E+00  0.42140130527E+03  0.42140130527E+03  0.00000000000E+00 0.  1.
         21   -1    0    0  506  502 -0.00000000000E+00 -0.00000000000E+00 -0.25777092649E+03  0.25777092649E+03  0.00000000000E+00 0.  1.
         21    1    1    2  503  504  0.38141786791E+02  0.28966964998E+02  0.34829190140E+02  0.59219536021E+02  0.00000000000E+00 0.  1.
         21    1    1    2  504  502 -0.25979126224E+03 -0.64234124946E+02  0.23989881752E+03  0.35940084222E+03  0.00000000000E+00 0.  1.
         21    1    1    2  505  501  0.13991467108E+03 -0.44247318964E+00 -0.37343270169E+02  0.14481308916E+03  0.00000000000E+00 0.  1.
         21    1    1    2  506  505  0.81734804368E+02  0.35709633138E+02 -0.73754358711E+02  0.11573876435E+03  0.00000000000E+00 0.  1.
<scales pt_clust_3="47.89448" pt_clust_4="232.90862" pt_clust_5="57.14056" pt_clust_6="57.14056"></scales>
<clustering>
<clus scale="   47.894">  1  3  2 -1</clus>
<clus scale="   57.141">  5  6 -1 -1</clus>
<clus scale="  232.909">  1  4  2 -1</clus>
<clus scale="   47.894">  1  3  2 -1</clus>
</clustering>
</event>
<event>
 6    0  0.1555973E+002  0.1395763E+03  0.7546771E-02  0.1213900E+00
         21   -1    0    0  502  501  0.00000000000E+00  0.00000000000E+00  0.26113057974E+04  0.26113057974E+04  0.00000000000E+00 0. -1.
         21   -1    0    0  504  502 -0.00000000000E+00 -0.00000000000E+00 -0.91440865231E+03  0.91440865231E+03  0.00000000000E+00 0.  1.
         21    1    1    2  503  505 -0.39609785993E+02  0.64536553467E+01  0.97779290478E+03  0.97861614000E+03  0.00000000000E+00 0. -1.
         21    1    1    2  504  506  0.13639053615E+03 -0.31595006038E+02 -0.90555728191E+03  0.91631578267E+03  0.00000000000E+00 0.  1.
         21    1    1    2  505  501 -0.89400389389E+01  0.31582630691E+02  0.92733352297E+03  0.92791424694E+03  0.00000000000E+00 0. -1.
         21    1    1    2  506  503 -0.87840711220E+02 -0.64412799989E+01  0.69732799929E+03  0.70286828014E+03  0.00000000000E+00 0. -1.
<scales pt_clust_3="51.21104" pt_clust_4="14000.00000" pt_clust_5="32.82357" pt_clust_6="139.57627"></scales>
<clustering>
<clus scale="   32.824">  1  5  2 -1</clus>
<clus scale="   51.211">  1  3  2 -1</clus>
<clus scale="  139.576">  1  6  2 -1</clus>
<clus scale="   32.824">  1  3  2 -1</clus>
</clustering>
</event>
<event>
 6    0  0.1555973E+002  0.1165629E+03  0.7546771E-02  0.1248877E+00
         21   -1    0    0  503  501  0.00000000000E+00  0.00000000000E+00  0.61594936159E+03  0.61594936159E+03  0.00000000000E+00 0. -1.
         21   -1    0    0  505  502 -0.00000000000E+00 -0.00000000000E+00 -0.15719416511E+04  0.15719416511E+04  0.00000000000E+00 0. -1.
         21    1    1    2  503  506 -0.90382512405E+02  0.23797352865E+02  0.10481020116E+03  0.14042966503E+03  0.00000000000E+00 0. -1.
         21    1    1    2  504  501  0.55650443106E+02 -0.60864373485E+02  0.41057885190E+03  0.41877970033E+03  0.00000000000E+00 0. -1.
         21    1    1    2  505  504  0.88492824336E+02  0.59298867560E+02 -0.15371720351E+04  0.15408585922E+04  0.00000000000E+00 0. -1.
         21    1    1    2  506  502 -0.53760755036E+02 -0.22231846941E+02  0.65790692496E+02  0.87823055171E+02  0.00000000000E+00 0. -1.
<scales pt_clust_3="37.13051" pt_clust_4="82.47087" pt_clust_5="106.63958" pt_clust_6="37.13051"></scales>
<clustering>
<clus scale="   37.131">  3  6 -1 -1</clus>
<clus scale="   82.471">  1  4  2 -1</clus>
<clus scale="  106.640">  2  5  1 -1</clus>
<clus scale="   82.471">  1  3  2 -1</clus>
</clustering>
</event>
<event>
 6    0  0.1555973E+002  0.1782124E+03  0.7546771E-02  0.1169544E+00
         21   -1    0    0  503  501  0.00000000000E+00  0.00000000000E+00  0.30916291129E+03  0.30916291129E+03  0.00000000000E+00 0.  1.
         21   -1    0    0  505  502 -0.00000000000E+00 -0.00000000000E+00 -0.37016073807E+03  0.37016073807E+03  0.00000000000E+00 0.  1.
         21    1    1    2  503  504  0.28207596032E+02  0.17916594886E+02 -0.29684678461E+01  0.33548243584E+02  0.00000000000E+00 0.  1.
         21    1    1    2  504  502 -0.88357863522E+02 -0.14328886969E+03 -0.30890016508E+03  0.35179272904E+03  0.00000000000E+00 0.  1.
         21    1    1    2  505  506  0.34728766055E+02  0.17992448334E+02  0.39769645793E+02  0.55780284288E+02  0.00000000000E+00 0.  1.
         21    1    1    2  506  501  0.25421501436E+02  0.10737982647E+03  0.21110116035E+03  0.23820239245E+03  0.00000000000E+00 0.  1.
<scales pt_clust_3="33.41666" pt_clust_4="166.15137" pt_clust_5="37.73579" pt_clust_6="37.73579"></scales>
<clustering>
<clus scale="   33.417">  1  3  2 -1</clus>
<clus scale="   37.736">  5  6 -1 -1</clus>
<clus scale="  166.151">  2  4  1 -1</clus>
<clus scale="   33.417">  1  3  2 -1</clus>
</clustering>
</event>
<event>
 6    0  0.1555973E+002  0.1272279E+03  0.7546771E-02  0.1231628E+00
         21   -1    0    0  504  501  0.00000000000E+00  0.00000000000E+00  0.50351855698E+02  0.50351855698E+02  0.00000000000E+00 0. -1.
         21   -1    0    0  506  502 -0.00000000000E+00 -0.00000000000E+00 -0.13709368007E+04  0.13709368007E+04  0.00000000000E+00 0. -1.
         21    1    1    2  503  501  0.45644998874E+02  0.35377589622E+02 -0.97312392477E+01  0.58563954673E+02  0.00000000000E+00 0. -1.
         21    1    1    2  504  502 -0.61316282616E+02 -0.15747944667E+03 -0.10468036803E+04  0.10603572076E+04  0.00000000000E+00 0. -1.
         21    1    1    2  505  503  0.60452695706E+01  0.60222607274E+02 -0.47483570694E+02  0.76928520049E+02  0.00000000000E+00 0. -1.
         21    1    1    2  506  505  0.96260141716E+01  0.61879249775E+02 -0.21656645479E+03  0.22543897409E+03  0.00000000000E+00 0. -1.
<scales pt_clust_3="55.88639" pt_clust_4="113.63782" pt_clust_5="55.88639" pt_clust_6="62.62349"></scales>
<clustering>
<clus scale="   55.886">  3  5 -1 -1</clus>
<clus scale="   62.623">  2  6  1 -1</clus>
<clus scale="  113.638">  2  4  1 -1</clus>
<clus scale="  127.228">  1  3  2 -1</clus>
</clustering>
</event>
<event>
 6    0  0.1555973E+002  0.2216091E+03  0.7546771E-02  0.1132689E+00
         21   -1    0    0  503  501  0.00000000000E+00  0.00000000000E+00  0.10517920847E+04  0.10517920847E+04  0.00000000000E+00 0. -1.
         21   -1    0    0  504  502 -0.00000000000E+00 -0.00000000000E+00 -0.33409663008E+03  0.33409663008E+03  0.00000000000E+00 0. -1.
         21    1    1    2  503  505 -0.38222296471E+02 -0.87689929297E+01  0.38414413091E+02  0.54895412537E+02  0.00000000000E+00 0. -1.
         21    1    1    2  504  506 -0.12197667575E+02 -0.31995629018E+02 -0.25371455428E+03  0.25601480119E+03  0.00000000000E+00 0. -1.
         21    1    1    2  505  502 -0.65147839149E+02 -0.13566956102E+03  0.37667318486E+02  0.15514282973E+03  0.00000000000E+00 0. -1.
         21    1    1    2  506  501  0.11556780319E+03  0.17643418297E+03  0.89532827735E+03  0.91983567134E+03  0.00000000000E+00 0. -1.
<scales pt_clust_3="39.90903" pt_clust_4="34.24184" pt_clust_5="39.90903" pt_clust_6="205.74463"></scales>
<clustering>
<clus scale="   34.242">  2  4  1 -1</clus>
<clus scale="   39.909">  3  5 -1 -1</clus>
<clus scale="  205.745">  1  6  2 -1</clus>
<clus scale="  205.745">  1  3  2 -1</clus>
</clustering>
</event>
<event>
 6    0  0.1555973E+002  0.1318725E+03  0.7546771E-02  0.1224703E+00
         21   -1    0    0  505  501  0.00000000000E+00  0.00000000000E+00  0.28560291951E+04  0.28560291951E+04  0.00000000000E+00 0. -1.
         21   -1    0    0  503  502 -0.00000000000E+00 -0.00000000000E+00 -0.14240896417E+03  0.14240896417E+03  0.00000000000E+00 0.  1.
         21    1    1    2  503  501 -0.25197926851E+02 -0.91410971953E+02  0.16465614170E+04  0.16492893625E+04  0.00000000000E+00 0. -1.
         21    1    1    2  504  506 -0.29992419926E+02  0.11467698844E+03  0.87272059035E+03  0.88073354981E+03  0.00000000000E+00 0.  1.
         21    1    1    2  505  504 -0.10687978415E+02  0.73859465999E+02  0.30082589441E+03  0.30994462787E+03  0.00000000000E+00 0.  1.
         21    1    1    2  506  502  0.65878325191E+02 -0.97125482487E+02 -0.10648767082E+03  0.15847061909E+03  0.00000000000E+00 0.  1.
<scales pt_clust_3="94.82036" pt_clust_4="45.59722" pt_clust_5="45.59722" pt_clust_6="118.69317"></scales>
<clustering>
<clus scale="   45.597">  4  5 -1 -1</clus>
<clus scale="   94.820">  1  3  2 -1</clus>
<clus scale="  118.693">  2  6  1 -1</clus>
<clus scale="   94.820">  1  3  2 -1</clus>
</clustering>
</event>
<event>
 6    0  0.1555973E+002  0.9118108E+02  0.7546771E-02  0.1300016E+00
         21   -1    0    0  503  501  0.00000000000E+00  0.00000000000E+00  0.85171871228E+03  0.85171871228E+03  0.00000000000E+00 0. -1.
         21   -1    0    0  504  502 -0.00000000000E+00 -0.00000000000E+00 -0.10650682928E+04  0.10650682928E+04  0.00000000000E+00 0.  1.
         21    1    1    2  503  502 -0.38273394693E+02 -0.18267923806E+02  0.84918002639E+02  0.94919107421E+02  0.00000000000E+00 0.  1.
         21    1    1    2  504  506 -0.59076481286E+02 -0.69487342959E+02 -0.10508439653E+04  0.10547945586E+04  0.00000000000E+00 0.  1.
         21    1    1    2  505  501  0.90888150616E+01  0.50515662876E+02  0.31293289910E+03  0.31711423509E+03  0.00000000000E+00 0. -1.
         21    1    1    2  506  505  0.88261060918E+02  0.37239603888E+02  0.43964348309E+03  0.44995910391E+03  0.00000000000E+00 0. -1.
<scales pt_clust_3="42.40955" pt_clust_4="14000.00000" pt_clust_5="43.48663" pt_clust_6="91.18108"></scales>
<clustering>
<clus scale="   42.410">  1  3  2 -1</clus>
<clus scale="   43.487">  1  5  2 -1</clus>
<clus scale="   91.181">  1  6  2 -1</clus>
<clus scale="   42.410">  1  3  2 -1</clus>
</clustering>
</event>
<event>
 6    0  0.1555973E+002  0.9842074E+02  0.7546771E-02  0.1283652E+00
         21   -1    0    0  504  501  0.00000000000E+00  0.00000000000E+00  0.26570332945E+03  0.26570332945E+03  0.00000000000E+00 0. -1.
         21   -1    0    0  503  502 -0.00000000000E+00 -0.00000000000E+00 -0.73917451791E+03  0.73917451791E+03  0.00000000000E+00 0. -1.
         21    1    1    2  503  505  0.28717706663E+02 -0.65689432476E+02  0.78878498318E+01  0.72125074627E+02  0.00000000000E+00 0. -1.
         21    1    1    2  504  506 -0.22150971687E+02  0.28803425123E+02  0.16859233998E+02  0.40056667566E+02  0.00000000000E+00 0. -1.
         21    1    1    2  505  501 -0.36612773176E+02  0.91710584823E+02  0.18335820111E+03  0.20825838865E+03  0.00000000000E+00 0. -1.
         21    1    1    2  506  502  0.30046038200E+02 -0.54824577470E+02 -0.68157647340E+03  0.68443771652E+03  0.00000000000E+00 0. -1.
<scales pt_clust_3="14000.00000" pt_clust_4="36.33597" pt_clust_5="98.42074" pt_clust_6="62.30149"></scales>
<clustering>
<clus scale="   36.336">  1  4  2 -1</clus>
<clus scale="   62.301">  2  6  1 -1</clus>
<clus scale="   98.421">  1  5  2 -1</clus>
<clus scale="   36.336">  1  3  2 -1</clus>
</clustering>
</event>
<event>
 6    0  0.1555973E+002  0.1572901E+03  0.7546771E-02  0.1191791E+00
         21   -1    0    0  504  501  0.00000000000E+00  0.00000000000E+00  0.61724056318E+03  0.61724056318E+03  0.00000000000E+00 0.  1.
         21   -1    0    0  501  502 -0.00000000000E+00 -0.00000000000E+00 -0.18808210936E+03  0.18808210936E+03  0.00000000000E+00 0.  1.
         21    1    1    2  503  506 -0.12948603771E+02  0.44060155549E+02  0.10578660509E+03  0.11532462644E+03  0.00000000000E+00 0.  1.
         21    1    1    2  504  505  0.63695968159E+02  0.19243020911E+02  0.28239275237E+03  0.29012607053E+03  0.00000000000E+00 0.  1.
         21    1    1    2  505  503  0.33665375264E+02  0.68721967239E+02  0.17670363558E+03  0.19256230447E+03  0.00000000000E+00 0. -1.
         21    1    1    2  506  502 -0.84412739652E+02 -0.13202514370E+03 -0.13572453923E+03  0.20730967110E+03  0.00000000000E+00 0.  1.
<scales pt_clust_3="33.27139" pt_clust_4="66.53924" pt_clust_5="33.27139" pt_clust_6="151.31278"></scales>
<clustering>
<clus scale="   33.271">  3  5 -1 -1</clus>
<clus scale="   66.539">  1  4  2 -1</clus>
<clus scale="  151.313">  2  6  1 -1</clus>
<clus scale="   66.539">  1  3  2 -1</clus>
</clustering>
</event>
<event>
 6    0  0.1555973E+002  0.1579609E+03  0.7546771E-02  0.1191018E+00
         21   -1    0    0  505  501  0.00000000000E+00  0.00000000000E+00  0.83535674184E+03  0.83535674184E+03  0.00000000000E+00 0.  1.
         21   -1    0    0  503  502 -0.00000000000E+00 -0.00000000000E+00 -0.35882302710E+02  0.35882302710E+02  0.00000000000E+00 0.  1.
         21    1    1    2  503  506  0.24074556007E+02  0.26526362275E+02  0.52022295542E+02  0.63162895563E+02  0.00000000000E+00 0.  1.
         21    1    1    2  504  502 -0.13679215074E+03  0.59880035514E+01  0.34943879545E+03  0.37530710153E+03  0.00000000000E+00 0.  1.
         21    1    1    2  505  504 -0.16801274762E+02 -0.26194467397E+02  0.14679841266E+03  0.15006067744E+03  0.00000000000E+00 0. -1.
         21    1    1    2  506  501  0.12951886949E+03 -0.63198984299E+01  0.25121493548E+03  0.28270837002E+03  0.00000000000E+00 0.  1.
<scales pt_clust_3="31.38052" pt_clust_4="145.86561" pt_clust_5="31.11966" pt_clust_6="31.38052"></scales>
<clustering>
<clus scale="   31.120">  1  5  2 -1</clus>
<clus scale="   31.381">  3  6 -1 -1</clus>
<clus scale="  145.866">  1  4  2 -1</clus>
<clus scale="   31.120">  1  3  2 -1</clus>
</clustering>
</event>
<event>
 6    0  0.1555973E+002  0.2188736E+03  0.7546771E-02  0.1134726E+00
         21   -1    0    0  503  501  0.00000000000E+00  0.00000000000E+00  0.11554476665E+03  0.11554476665E+03  0.00000000000E+00 0.  1.
         21   -1    0    0  505  502 -0.00000000000E+00 -0.00000000000E+00 -0.12632435501E+04  0.12632435501E+04  0.00000000000E+00 0. -1.
         21    1    1    2  503  504 -0.38693069475E+02 -0.24600520933E+02 -0.25471233889E+02  0.52451148809E+02  0.00000000000E+00 0. -1.
         21    1    1    2  504  502 -0.13613032893E+03 -0.15882737611E+03 -0.10323671873E+04  0.10533468618E+04  0.00000000000E+00 0. -1.
         21    1    1    2  505  506  0.92334423190E+02  0.10344902644E+03 -0.24518024039E+02  0.14081363670E+03  0.00000000000E+00 0.  1.
         21    1    1    2  506  501  0.82488975216E+02  0.79978870604E+02 -0.65342338179E+02  0.13217666940E+03  0.00000000000E+00 0.  1.
<scales pt_clust_3="45.85127" pt_clust_4="213.69569" pt_clust_5="43.08020" pt_clust_6="43.08020"></scales>
<clustering>
<clus scale="   43.080">  5  6 -1 -1</clus>
<clus scale="   45.851">  1  3  2 -1</clus>
<clus scale="  213.696">  2  4  1 -1</clus>
<clus scale="   45.851">  1  3  2 -1</clus>
</clustering>
</event>
<event>
 6    0  0.1555973E+002  0.7266629E+02  0.7546771E-02  0.1351254E+00
         21   -1    0    0  504  501  0.00000000000E+00  0.00000000000E+00  0.81766912396E+02  0.81766912396E+02  0.00000000000E+00 0. -1.
         21   -1    0    0  505  502 -0.00000000000E+00 -0.00000000000E+00 -0.84215984455E+03  0.84215984455E+03  0.00000000000E+00 0. -1.
         21    1    1    2  503  501 -0.31483495345E+02 -0.10124643161E+03 -0.15165073480E+03  0.18504052464E+03  0.00000000000E+00 0. -1.
         21    1    1    2  504  506 -0.40937191407E+02  0.25788353973E+02  0.33580645358E+02  0.58894418951E+02  0.00000000000E+00 0. -1.
         21    1    1    2  505  503  0.48126773895E+02  0.26297493976E+02 -0.61727450081E+03  0.61970602216E+03  0.00000000000E+00 0. -1.
         21    1    1    2  506  502  0.24293912856E+02  0.49160583662E+02 -0.25048341907E+02  0.60285791196E+02  0.00000000000E+00 0. -1.
<scales pt_clust_3="14000.00000" pt_clust_4="48.38277" pt_clust_5="54.05612" pt_clust_6="72.66629"></scales>
<clustering>
<clus scale="   48.383">  1  4  2 -1</clus>
<clus scale="   54.056">  2  5  1 -1</clus>
<clus scale="   72.666">  1  6  2 -1</clus>
<clus scale="   48.383">  1  3  2 -1</clus>
</clustering>
</event>
<event>
 6    0  0.1555973E+002  0.1681234E+03  0.7546771E-02  0.1179819E+00
         21   -1    0    0  504  501  0.00000000000E+00  0.00000000000E+00  0.16297652016E+04  0.16297652016E+04  0.00000000000E+00 0.  1.
         21   -1    0    0  503  502 -0.00000000000E+00 -0.00000000000E+00 -0.18555769902E+04  0.18555769902E+04  0.00000000000E+00 0. -1.
         21    1    1    2  503  505  0.29941232494E+02 -0.68807332785E+02  0.14318518203E+02  0.76393366282E+02  0.00000000000E+00 0.  1.
         21    1    1    2  504  506 -0.37935475227E+02  0.16441774788E+03  0.15431973489E+04  0.15523950379E+04  0.00000000000E+00 0.  1.
         21    1    1    2  505  501  0.37136263034E+02 -0.16263009332E+02  0.24091424652E+02  0.47159137465E+02  0.00000000000E+00 0.  1.
         21    1    1    2  506  502 -0.29142020301E+02 -0.79347405763E+02 -0.18074190804E+04  0.18093946502E+04  0.00000000000E+00 0. -1.
<scales pt_clust_3="33.30851" pt_clust_4="161.90095" pt_clust_5="33.30851" pt_clust_6="84.52969"></scales>
<clustering>
<clus scale="   33.309">  3  5 -1 -1</clus>
<clus scale="   84.530">  2  6  1 -1</clus>
<clus scale="  161.901">  1  4  2 -1</clus>
<clus scale="  161.901">  1  3  2 -1</clus>
</clustering>
</event>
<event>
 6    0  0.1887555E+002  0.1743459E+03  0.7546771E-02  0.1173390E+00
         21   -1    0    0  503  501  0.00000000000E+00  0.00000000000E+00  0.45028678565E+03  0.45028678565E+03  0.00000000000E+00 0.  1.
         21   -1    0    0  505  502 -0.00000000000E+00 -0.00000000000E+00 -0.49573372163E+03  0.49573372163E+03  0.00000000000E+00 0.  1.
         21    1    1    2  503  506 -0.31271188394E+02  0.86420258621E+01  0.20999024648E+02  0.38646227121E+02  0.00000000000E+00 0. -1.
         21    1    1    2  504  502  0.14798742220E+03  0.97108940108E+02 -0.44275288953E+03  0.47682338928E+03  0.00000000000E+00 0.  1.
         21    1    1    2  505  501 -0.28972841176E+02 -0.29753774472E+02  0.53700743557E+01  0.41875414263E+02  0.00000000000E+00 0. -1.
         21    1    1    2  506  504 -0.87743392629E+02 -0.75997191498E+02  0.37093685454E+03  0.38867547662E+03  0.00000000000E+00 0.  1.
<scales pt_clust_3="32.44336" pt_clust_4="14000.00000" pt_clust_5="42.43756" pt_clust_6="174.34592"></scales>
<clustering>
<clus scale="   32.443">  1  3  2 -1</clus>
<clus scale="   42.438">  1  5  2 -1</clus>
<clus scale="  174.346">  1  6  2 -1</clus>
<clus scale="   32.443">  1  3  2 -1</clus>
</clustering>
</event>
<event>
 6    0  0.1555973E+002  0.1051128E+03  0.7546771E-02  0.1269898E+00
         21   -1    0    0  506  501  0.00000000000E+00  0.00000000000E+00  0.12490370128E+03  0.12490370128E+03  0.00000000000E+00 0. -1.
         21   -1    0    0  504  502 -0.00000000000E+00 -0.00000000000E+00 -0.33817605701E+03  0.33817605701E+03  0.00000000000E+00 0. -1.
         21    1    1    2  503  501  0.22173427657E+02  0.52295226691E+02  0.57127612137E+02  0.80560633669E+02  0.00000000000E+00 0. -1.
         21    1    1    2  504  503 -0.48336934033E+02  0.78533072066E+02 -0.21367333818E+03  0.23272343683E+03  0.00000000000E+00 0. -1.
         21    1    1    2  505  502  0.31260754719E+02 -0.70634979129E+02 -0.22927059247E+02  0.80574097003E+02  0.00000000000E+00 0. -1.
         21    1    1    2  506  505 -0.50972483428E+01 -0.60193319628E+02 -0.33799570439E+02  0.69221590782E+02  0.00000000000E+00 0. -1.
<scales pt_clust_3="56.80186" pt_clust_4="98.12459" pt_clust_5="33.32760" pt_clust_6="33.32760"></scales>
<clustering>
<clus scale="   33.328">  5  6 -1 -1</clus>
<clus scale="   56.802">  1  3  2 -1</clus>
<clus scale="   98.125">  2  4  1 -1</clus>
<clus scale="   56.802">  1  3  2 -1</clus>
</clustering>
</event>
<event>
 6    0  0.1555973E+002  0.2098867E+03  0.7546771E-02  0.1141656E+00
         21   -1    0    0  505  501  0.00000000000E+00  0.00000000000E+00  0.12145541189E+03  0.12145541189E+03  0.00000000000E+00 0. -1.
         21   -1    0    0  506  502 -0.00000000000E+00 -0.00000000000E+00 -0.91225216473E+03  0.91225216473E+03  0.00000000000E+00 0.  1.
         21    1    1    2  503  502 -0.19633998824E+03  0.49280274968E+02 -0.15142495753E+03  0.25279923703E+03  0.00000000000E+00 0. -1.
         21    1    1    2  504  501  0.16527009787E+03 -0.27035482614E+02 -0.71420622672E+02  0.18206050618E+03  0.00000000000E+00 0. -1.
         21    1    1    2  505  503 -0.68812891326E+02 -0.22234798948E+01 -0.11051953662E+03  0.13021031392E+03  0.00000000000E+00 0. -1.
         21    1    1    2  506  504  0.99882781693E+02 -0.20021312459E+02 -0.45743163602E+03  0.46863751948E+03  0.00000000000E+00 0.  1.
<scales pt_clust_3="43.48980" pt_clust_4="196.19228" pt_clust_5="43.48980" pt_clust_6="101.86964"></scales>
<clustering>
<clus scale="   43.490">  3  5 -1 -1</clus>
<clus scale="  101.870">  2  6  1 -1</clus>
<clus scale="  196.192">  1  4  2 -1</clus>
<clus scale="  196.192">  1  3  2 -1</clus>
</clustering>
</event>
<event>
 6    0  0.1555973E+002  0.1516458E+03  0.7546771E-02  0.1198465E+00
         21   -1    0    0  505  501  0.00000000000E+00  0.00000000000E+00  0.12895931123E+04  0.12895931123E+04  0.00000000000E+00 0. -1.
         21   -1    0    0  504  502 -0.00000000000E+00 -0.00000000000E+00 -0.97681456769E+02  0.97681456769E+02  0.00000000000E+00 0.  1.
         21    1    1    2  503  501 -0.38629873971E+01 -0.93828726235E+02  0.52025034324E+03  0.52865789711E+03  0.00000000000E+00 0. -1.
         21    1    1    2  504  506 -0.28805022201E+02  0.64255213722E+02  0.29032055192E+03  0.29873815401E+03  0.00000000000E+00 0.  1.
         21    1    1    2  505  502  0.13181422998E+03  0.68070475038E+01 -0.30660718557E+02  0.13550426851E+03  0.00000000000E+00 0.  1.
         21    1    1    2  506  503 -0.99146220385E+02  0.22766465009E+02  0.41200147891E+03  0.42437424942E+03  0.00000000000E+00 0. -1.
<scales pt_clust_3="93.90821" pt_clust_4="62.76459" pt_clust_5="131.55011" pt_clust_6="62.76459"></scales>
<clustering>
<clus scale="   62.765">  4  6 -1 -1</clus>
<clus scale="   93.908">  1  3  2 -1</clus>
<clus scale="  131.550">  2  5  1 -1</clus>
<clus scale="   93.908">  1  3  2 -1</clus>
</clustering>
</event>
<event>
 6    0  0.1555973E+002  0.1242941E+03  0.7546771E-02  0.1236177E+00
         21   -1    0    0  506  501  0.00000000000E+00  0.00000000000E+00  0.60860772128E+03  0.60860772128E+03  0.00000000000E+00 0.  1.
         21   -1    0    0  501  502 -0.00000000000E+00 -0.00000000000E+00 -0.74764866175E+02  0.74764866175E+02  0.00000000000E+00 0.  1.
         21    1    1    2  503  505 -0.57475025937E+02  0.58177573081E+02  0.56665901279E+02  0.99493884153E+02  0.00000000000E+00 0.  1.
         21    1    1    2  504  502  0.36215974924E+02  0.67656469607E+01 -0.17501194207E+02  0.40788020511E+02  0.00000000000E+00 0.  1.
         21    1    1    2  505  504 -0.60448326169E+01  0.47199503737E+02  0.15255769578E+02  0.49970708018E+02  0.00000000000E+00 0.  1.
         21    1    1    2  506  503  0.27303883629E+02 -0.11214272378E+03  0.47942237845E+03  0.49311997477E+03  0.00000000000E+00 0.  1.
<scales pt_clust_3="34.35005" pt_clust_4="36.84251" pt_clust_5="34.35005" pt_clust_6="115.84981"></scales>
<clustering>
<clus scale="   34.350">  3  5 -1 -1</clus>
<clus scale="   36.843">  2  4  1 -1</clus>
<clus scale="  115.850">  1  6  2 -1</clus>
<clus scale="  115.850">  1  3  2 -1</clus>
</clustering>
</event>
<event>
 6    0  0.1555973E+002  0.5474090E+03  0.7546771E-02  0.1002095E+00
         21   -1    0    0  506  501  0.00000000000E+00  0.00000000000E+00  0.12240004982E+04  0.12240004982E+04  0.00000000000E+00 0. -1.
         21   -1    0    0  505  502 -0.00000000000E+00 -0.00000000000E+00 -0.12872477293E+04  0.12872477293E+04  0.00000000000E+00 0. -1.
         21    1    1    2  503  501  0.29389431273E+03 -0.41266358004E+03  0.84512050766E+03  0.98533941858E+03  0.00000000000E+00 0. -1.
         21    1    1    2  504  502 -0.66795202234E+02 -0.13441043297E+03 -0.85011831419E+03  0.86326641986E+03  0.00000000000E+00 0. -1.
         21    1    1    2  505  503 -0.24592223480E+03  0.57476659556E+03 -0.64822496343E+02  0.62851916516E+03  0.00000000000E+00 0. -1.
         21    1    1    2  506  504  0.18823124298E+02 -0.27692582548E+02  0.65730718401E+01  0.34123223909E+02  0.00000000000E+00 0. -1.
<scales pt_clust_3="547.40896" pt_clust_4="150.18230" pt_clust_5="14000.00000" pt_clust_6="33.48416"></scales>
<clustering>
<clus scale="   33.484">  1  6  2 -1</clus>
<clus scale="  150.182">  2  4  1 -1</clus>
<clus scale="  547.409">  1  3  2 -1</clus>
<clus scale="   33.484">  1  3  2 -1</clus>
</clustering>
</event>
<event>
 6    0  0.1555973E+002  0.1016833E+03  0.7546771E-02  0.1276796E+00
         21   -1    0    0  506  501  0.00000000000E+00  0.00000000000E+00  0.58137450145E+03  0.58137450145E+03  0.00000000000E+00 0.  1.
         21   -1    0    0  503  502 -0.00000000000E+00 -0.00000000000E+00 -0.18187276518E+03  0.18187276518E+03  0.00000000000E+00 0.  1.
         21    1    1    2  503  505  0.85986345914E+02 -0.55717544511E+02 -0.14658113266E+03  0.17884106045E+03  0.00000000000E+00 0.  1.
         21    1    1    2  504  501  0.20602621488E+02  0.32180619320E+02  0.22915525881E+03  0.23231916174E+03  0.00000000000E+00 0.  1.
         21    1    1    2  505  504 -0.39219365772E+02 -0.36146323455E+02  0.62255220546E+02  0.81978215619E+02  0.00000000000E+00 0.  1.
         21    1    1    2  506  502 -0.67369601630E+02  0.59683248647E+02  0.25467238957E+03  0.27010882881E+03  0.00000000000E+00 0.  1.
<scales pt_clust_3="101.68329" pt_clust_4="38.21074" pt_clust_5="45.77792" pt_clust_6="14000.00000"></scales>
<clustering>
<clus scale="   38.211">  1  4  2 -1</clus>
<clus scale="   45.778">  1  5  2 -1</clus>
<clus scale="  101.683">  2  3  1 -1</clus>
<clus scale="   38.211">  1  3  2 -1</clus>
</clustering>
</event>
<event>
 6    0  0.1555973E+002  0.1072791E+03  0.7546771E-02  0.1265693E+00
         21   -1    0    0  506  501  0.00000000000E+00  0.00000000000E+00  0.12400031754E+03  0.12400031754E+03  0.00000000000E+00 0. -1.
         21   -1    0    0  505  502 -0.00000000000E+00 -0.00000000000E+00 -0.22569534603E+03  0.22569534603E+03  0.00000000000E+00 0. -1.
         21    1    1    2  503  501 -0.99672037718E+01  0.46262600184E+02 -0.28337483219E+02  0.55159643599E+02  0.00000000000E+00 0. -1.
         21    1    1    2  504  502 -0.57577631720E+02 -0.10449628540E+02 -0.57437671403E+02  0.81996734736E+02  0.00000000000E+00 0. -1.
         21    1    1    2  505  503 -0.73985920916E+01  0.38656200588E+02 -0.79870259861E+02  0.89040998529E+02  0.00000000000E+00 0. -1.
         21    1    1    2  506  504  0.74943427583E+02 -0.74469172232E+02  0.63950385992E+02  0.12349828671E+03  0.00000000000E+00 0. -1.
<scales pt_clust_3="36.15925" pt_clust_4="58.51819" pt_clust_5="36.15925" pt_clust_6="99.68284"></scales>
<clustering>
<clus scale="   36.159">  3  5 -1 -1</clus>
<clus scale="   58.518">  2  4  1 -1</clus>
<clus scale="   99.683">  1  6  2 -1</clus>
<clus scale="   99.683">  1  3  2 -1</clus>
</clustering>
</event>
<event>
 6    0  0.1555973E+002  0.1711744E+03  0.7546771E-02  0.1176629E+00
         21   -1    0    0  502  501  0.00000000000E+00  0.00000000000E+00  0.59536405673E+03  0.59536405673E+03  0.00000000000E+00 0.  1.
         21   -1    0    0  506  502 -0.00000000000E+00 -0.00000000000E+00 -0.26732196232E+03  0.26732196232E+03  0.00000000000E+00 0.  1.
         21    1    1    2  503  504  0.43227937292E+02  0.82515344398E+01  0.77609074225E+01  0.44687515786E+02  0.00000000000E+00 0.  1.
         21    1    1    2  504  505  0.74347146060E+02 -0.57845596433E+01  0.89338594675E+02  0.11637157624E+03  0.00000000000E+00 0.  1.
         21    1    1    2  505  501  0.46731479576E+02 -0.69082722416E+02  0.42828922735E+03  0.43633463762E+03  0.00000000000E+00 0.  1.
         21    1    1    2  506  503 -0.16430656293E+03  0.66615747619E+02 -0.19734663504E+03  0.26529228940E+03  0.00000000000E+00 0.  1.
<scales pt_clust_3="39.78214" pt_clust_4="39.78214" pt_clust_5="83.40416" pt_clust_6="163.15317"></scales>
<clustering>
<clus scale="   39.782">  3  4 -1 -1</clus>
<clus scale="   83.404">  1  5  2 -1</clus>
<clus scale="  163.153">  2  6  1 -1</clus>
<clus scale="   83.404">  1  3  2 -1</clus>
</clustering>
</event>
<event>
 6    0  0.1555973E+002  0.8353035E+02  0.7546771E-02  0.1319321E+00
         21   -1    0    0  506  501  0.00000000000E+00  0.00000000000E+00  0.66427472950E+03  0.66427472950E+03  0.00000000000E+00 0. -1.
         21   -1    0    0  501  502 -0.00000000000E+00 -0.00000000000E+00 -0.34493475375E+02  0.34493475375E+02  0.00000000000E+00 0. -1.
         21    1    1    2  503  505  0.89300269084E+02  0.19067091314E+02  0.90343262155E+02  0.12845231429E+03  0.00000000000E+00 0. -1.
         21    1    1    2  504  503 -0.43755131355E+02 -0.62535612363E+02  0.21210672455E+03  0.22542066660E+03  0.00000000000E+00 0. -1.
         21    1    1    2  505  502 -0.11872889731E+02  0.52585681222E+02  0.89220327307E+02  0.10424243946E+03  0.00000000000E+00 0. -1.
         21    1    1    2  506  504 -0.33672247998E+02 -0.91171601731E+01  0.23811094011E+03  0.24065278452E+03  0.00000000000E+00 0. -1.
<scales pt_clust_3="14000.00000" pt_clust_4="83.53035" pt_clust_5="54.15744" pt_clust_6="34.88471"></scales>
<clustering>
<clus scale="   34.885">  1  6  2 -1</clus>
<clus scale="   54.157">  2  5  1 -1</clus>
<clus scale="   83.530">  1  4  2 -1</clus>
<clus scale="   34.885">  1  3  2 -1</clus>
</clustering>
</event>
<event>
 6    0  0.1555973E+002  0.1320847E+03  0.7546771E-02  0.1224395E+00
         21   -1    0    0  504  501  0.00000000000E+00  0.00000000000E+00  0.12000118335E+03  0.12000118335E+03  0.00000000000E+00 0.  1.
         21   -1    0    0  505  502 -0.00000000000E+00 -0.00000000000E+00 -0.23432777849E+03  0.23432777849E+03  0.00000000000E+00 0.  1.
         21    1    1    2  503  502 -0.10758419042E+02 -0.96479946128E+02  0.33615903508E+02  0.10273340525E+03  0.00000000000E+00 0.  1.
         21    1    1    2  504  503 -0.22209187946E+02 -0.28596657196E+02 -0.13343168284E+02  0.38588300972E+02  0.00000000000E+00 0.  1.
         21    1    1    2  505  506  0.41799010432E+02  0.13629537486E+02 -0.73390136240E+02  0.85551351027E+02  0.00000000000E+00 0.  1.
         21    1    1    2  506  501 -0.88314034433E+01  0.11144706584E+03 -0.61209194119E+02  0.12745590459E+03  0.00000000000E+00 0.  1.
<scales pt_clust_3="32.48788" pt_clust_4="32.48788" pt_clust_5="43.96500" pt_clust_6="120.89895"></scales>
<clustering>
<clus scale="   32.488">  3  4 -1 -1</clus>
<clus scale="   43.965">  2  5  1 -1</clus>
<clus scale="  120.899">  2  6  1 -1</clus>
<clus scale="  132.085">  1  3  2 -1</clus>
</clustering>
</event>
<event>
 6    0  0.1555973E+002  0.1283870E+03  0.7546771E-02  0.1229869E+00
         21   -1    0    0  505  501  0.00000000000E+00  0.00000000000E+00  0.17753110356E+04  0.17753110356E+04  0.00000000000E+00 0.  1.
         21   -1    0    0  503  502 -0.00000000000E+00 -0.00000000000E+00 -0.10701069006E+03  0.10701069006E+03  0.00000000000E+00 0. -1.
         21    1    1    2  503  501 -0.13399467073E+02  0.10678225657E+03  0.10389800174E+04  0.10445388804E+04  0.00000000000E+00 0.  1.
         21    1    1    2  504  502 -0.62846539603E+02 -0.11382191854E+03 -0.59632001794E+02  0.14304227459E+03  0.00000000000E+00 0. -1.
         21    1    1    2  505  506  0.36377168574E+02  0.21831696307E+02  0.23483421739E+03  0.23863577061E+03  0.00000000000E+00 0.  1.
         21    1    1    2  506  504  0.39868838102E+02 -0.14792034334E+02  0.45411811249E+03  0.45610480004E+03  0.00000000000E+00 0.  1.
<scales pt_clust_3="128.38700" pt_clust_4="14000.00000" pt_clust_5="42.42548" pt_clust_6="51.31059"></scales>
<clustering>
<clus scale="   42.425">  1  5  2 -1</clus>
<clus scale="   51.311">  1  6  2 -1</clus>
<clus scale="  128.387">  1  3  2 -1</clus>
<clus scale="   42.425">  1  3  2 -1</clus>
</clustering>
</event>
<event>
 6    0  0.1555973E+002  0.1340933E+03  0.7546771E-02  0.1221505E+00
         21   -1    0    0  505  501  0.00000000000E+00  0.00000000000E+00  0.32452291778E+03  0.32452291778E+03  0.00000000000E+00 0.  1.
         21   -1    0    0  504  502 -0.00000000000E+00 -0.00000000000E+00 -0.25939325961E+03  0.25939325961E+03  0.00000000000E+00 0.  1.
         21    1    1    2  503  506  0.33029671255E+02  0.29431332666E+02 -0.22843456109E+02  0.49789416674E+02  0.00000000000E+00 0.  1.
         21    1    1    2  504  503  0.49118443789E+02  0.52664701973E+01 -0.18439664051E+03  0.19089913111E+03  0.00000000000E+00 0.  1.
         21    1    1    2  505  502 -0.12341891834E+03 -0.63509816085E+02  0.25436534726E+03  0.28977138581E+03  0.00000000000E+00 0.  1.
         21    1    1    2  506  501  0.41270803298E+02  0.28812013222E+02  0.18004407519E+02  0.53456243797E+02  0.00000000000E+00 0.  1.
<scales pt_clust_3="38.92007" pt_clust_4="49.39997" pt_clust_5="127.50530" pt_clust_6="38.92007"></scales>
<clustering>
<clus scale="   38.920">  3  6 -1 -1</clus>
<clus scale="   49.400">  2  4  1 -1</clus>
<clus scale="  127.505">  1  5  2 -1</clus>
<clus scale="  127.505">  1  3  2 -1</clus>
</clustering>
</event>
<event>
 6    0  0.1555973E+002  0.1316445E+03  0.7546771E-02  0.1225036E+00
         21   -1    0    0  505  501  0.00000000000E+00  0.00000000000E+00  0.84334619701E+03  0.84334619701E+03  0.00000000000E+00 0. -1.
         21   -1    0    0  503  502 -0.00000000000E+00 -0.00000000000E+00 -0.16607021067E+03  0.16607021067E+03  0.00000000000E+00 0. -1.
         21    1    1    2  503  504  0.56623318298E+02  0.66844104110E+02 -0.11971186105E+03  0.14834171398E+03  0.00000000000E+00 0. -1.
         21    1    1    2  504  506 -0.15882673869E+03 -0.88655019955E+02  0.52777875517E+03  0.55824372804E+03  0.00000000000E+00 0. -1.
         21    1    1    2  505  502  0.23566319627E+02 -0.31298245257E+02  0.46861942010E+02  0.61081856438E+02  0.00000000000E+00 0. -1.
         21    1    1    2  506  501  0.78637100761E+02  0.53109161102E+02  0.22234715020E+03  0.24174910923E+03  0.00000000000E+00 0. -1.
<scales pt_clust_3="87.44917" pt_clust_4="131.64455" pt_clust_5="39.17846" pt_clust_6="14000.00000"></scales>
<clustering>
<clus scale="   39.178">  1  5  2 -1</clus>
<clus scale="   87.449">  2  3  1 -1</clus>
<clus scale="  131.645">  2  4  1 -1</clus>
<clus scale="   39.178">  1  3  2 -1</clus>
</clustering>
</event>
<event>
 6    0  0.1555973E+002  0.1328473E+03  0.7546771E-02  0.1223291E+00
         21   -1    0    0  504  501  0.00000000000E+00  0.00000000000E+00  0.64352996564E+02  0.64352996564E+02  0.00000000000E+00 0. -1.
         21   -1    0    0  503  502 -0.00000000000E+00 -0.00000000000E+00 -0.15476120087E+04  0.15476120087E+04  0.00000000000E+00 0. -1.
         21    1    1    2  503  505 -0.34603331938E+02  0.41889668118E+02 -0.18166397068E+02  0.57290076442E+02  0.00000000000E+00 0. -1.
         21    1    1    2  504  506  0.30091726118E+02 -0.96799267072E+02 -0.64955242971E+03  0.65741460969E+03  0.00000000000E+00 0. -1.
         21    1    1    2  505  501 -0.14668222701E+02  0.78025178088E+02  0.17569708340E+01  0.79411410511E+02  0.00000000000E+00 0. -1.
         21    1    1    2  506  502  0.19179828521E+02 -0.23115579135E+02 -0.81729715621E+03  0.81784890864E+03  0.00000000000E+00 0. -1.
<scales pt_clust_3="33.01505" pt_clust_4="126.63976" pt_clust_5="33.01505" pt_clust_6="30.03657"></scales>
<clustering>
<clus scale="   30.037">  2  6  1 -1</clus>
<clus scale="   33.015">  3  5 -1 -1</clus>
<clus scale="  126.640">  2  4  1 -1</clus>
<clus scale="  132.847">  1  3  2 -1</clus>
</clustering>
</event>
<event>
 6    0  0.1555973E+002  0.1180249E+03  0.7546771E-02  0.1246391E+00
         21   -1    0    0  506  501  0.00000000000E+00  0.00000000000E+00  0.19861605585E+03  0.19861605585E+03  0.00000000000E+00 0. -1.
         21   -1    0    0  504  502 -0.00000000000E+00 -0.00000000000E+00 -0.15902698511E+03  0.15902698511E+03  0.00000000000E+00 0. -1.
         21    1    1    2  503  501 -0.38141432544E+02  0.35487826855E+02  0.33554795913E+02  0.61968371450E+02  0.00000000000E+00 0.  1.
         21    1    1    2  504  505  0.52039908741E+02  0.53462756118E+02 -0.59292087217E+02  0.95299370407E+02  0.00000000000E+00 0. -1.
         21    1    1    2  505  503 -0.24473230093E+02  0.45163268361E+02  0.12951710310E+01  0.51384212247E+02  0.00000000000E+00 0. -1.
         21    1    1    2  506  502  0.10574753895E+02 -0.13411385133E+03  0.64031191008E+02  0.14899108685E+03  0.00000000000E+00 0. -1.
<scales pt_clust_3="34.52765" pt_clust_4="74.60843" pt_clust_5="34.52765" pt_clust_6="112.78645"></scales>
<clustering>
<clus scale="   34.528">  3  5 -1 -1</clus>
<clus scale="   74.608">  2  4  1 -1</clus>
<clus scale="  112.786">  2  6  1 -1</clus>
<clus scale="  118.025">  1  3  2 -1</clus>
</clustering>
</event>
<event>
 6    0  0.1555973E+002  0.1227718E+03  0.7546771E-02  0.1238593E+00
         21   -1    0    0  505  501  0.00000000000E+00  0.00000000000E+00  0.53543195884E+03  0.53543195884E+03  0.00000000000E+00 0. -1.
         21   -1    0    0  504  502 -0.00000000000E+00 -0.00000000000E+00 -0.26566437527E+03  0.26566437527E+03  0.00000000000E+00 0. -1.
         21    1    1    2  503  502 -0.40180139464E+02  0.21516508747E+02 -0.16814480977E+03  0.17421274583E+03  0.00000000000E+00 0. -1.
         21    1    1    2  504  506 -0.35121832341E+02  0.30210364069E+02 -0.52201698187E+02  0.69794172377E+02  0.00000000000E+00 0. -1.
         21    1    1    2  505  503  0.14532612102E+03 -0.68543315250E+02  0.44246742430E+03  0.47073908812E+03  0.00000000000E+00 0. -1.
         21    1    1    2  506  501 -0.70024149219E+02  0.16816442434E+02  0.47646667229E+02  0.86350327781E+02  0.00000000000E+00 0.  1.
<scales pt_clust_3="45.57854" pt_clust_4="75.32183" pt_clust_5="122.77179" pt_clust_6="14000.00000"></scales>
<clustering>
<clus scale="   45.579">  2  3  1 -1</clus>
<clus scale="   75.322">  2  4  1 -1</clus>
<clus scale="  122.772">  1  5  2 -1</clus>
<clus scale="  122.772">  1  3  2 -1</clus>
</clustering>
</event>
<event>
 6    0  0.1555973E+002  0.9980225E+02  0.7546771E-02  0.1280712E+00
         21   -1    0    0  503  501  0.00000000000E+00  0.00000000000E+00  0.14627113949E+03  0.14627113949E+03  0.00000000000E+00 0. -1.
         21   -1    0    0  504  502 -0.00000000000E+00 -0.00000000000E+00 -0.41642662520E+03  0.41642662520E+03  0.00000000000E+00 0.  1.
         21    1    1    2  503  502  0.40841681407E+02 -0.49177721689E+01 -0.15595974611E+02  0.43993884204E+02  0.00000000000E+00 0.  1.
         21    1    1    2  504  505 -0.30778270713E+02  0.38725877871E+02 -0.19457167696E+03  0.20076138334E+03  0.00000000000E+00 0.  1.
         21    1    1    2  505  506 -0.79313688687E+02 -0.44421221170E+02 -0.16694035631E+03  0.19008679246E+03  0.00000000000E+00 0.  1.
         21    1    1    2  506  501  0.69250277992E+02  0.10613115468E+02  0.10695252217E+03  0.12785570469E+03  0.00000000000E+00 0. -1.
<scales pt_clust_3="41.13669" pt_clust_4="48.78614" pt_clust_5="14000.00000" pt_clust_6="99.80225"></scales>
<clustering>
<clus scale="   41.137">  1  3  2 -1</clus>
<clus scale="   48.786">  2  4  1 -1</clus>
<clus scale="   99.802">  1  6  2 -1</clus>
<clus scale="   41.137">  1  3  2 -1</clus>
</clustering>
</event>
<event>
 6    0  0.1555973E+002  0.1382054E+03  0.7546771E-02  0.1215764E+00
         21   -1    0    0  506  501  0.00000000000E+00  0.00000000000E+00  0.23837919777E+03  0.23837919777E+03  0.00000000000E+00 0. -1.
         21   -1    0    0  501  502 -0.00000000000E+00 -0.00000000000E+00 -0.23958728990E+04  0.23958728990E+04  0.00000000000E+00 0.  1.
         21    1    1    2  503  502  0.42033088904E+02  0.66696950691E+01 -0.20409476885E+04  0.20413913717E+04  0.00000000000E+00 0.  1.
         21    1    1    2  504  505  0.33187000031E+02  0.12027964513E+01  0.28754140016E+02  0.43927488642E+02  0.00000000000E+00 0. -1.
         21    1    1    2  505  503 -0.14590194603E+03  0.62788300959E+02 -0.31454841956E+03  0.35237828656E+03  0.00000000000E+00 0. -1.
         21    1    1    2  506  504  0.70681857091E+02 -0.70660792480E+02  0.16924826677E+03  0.19655494987E+03  0.00000000000E+00 0. -1.
<scales pt_clust_3="42.55896" pt_clust_4="31.64443" pt_clust_5="126.83469" pt_clust_6="31.64443"></scales>
<clustering>
<clus scale="   31.644">  4  6 -1 -1</clus>
<clus scale="   42.559">  2  3  1 -1</clus>
<clus scale="  126.835">  2  5  1 -1</clus>
<clus scale="  138.205">  1  3  2 -1</clus>
</clustering>
</event>
<event>
 6    0  0.1555973E+002  0.5253267E+03  0.7546771E-02  0.1007372E+00
         21   -1    0    0  505  501  0.00000000000E+00  0.00000000000E+00  0.50131662935E+03  0.50131662935E+03  0.00000000000E+00 0.  1.
         21   -1    0    0  506  502 -0.00000000000E+00 -0.00000000000E+00 -0.12967927326E+04  0.12967927326E+04  0.00000000000E+00 0.  1.
         21    1    1    2  503  501 -0.31584036225E+02  0.37501805593E+02 -0.83111060053E+01  0.49729380149E+02  0.00000000000E+00 0.  1.
         21    1    1    2  504  502  0.49364267789E+03  0.19524201540E+03  0.74360058074E+02  0.53603354022E+03  0.00000000000E+00 0.  1.
         21    1    1    2  505  504 -0.26043793286E+02  0.62161423104E+02  0.97401697709E+02  0.11844582056E+03  0.00000000000E+00 0.  1.
         21    1    1    2  506  503 -0.43601484838E+03 -0.29490524410E+03 -0.95892675298E+03  0.10939006210E+04  0.00000000000E+00 0.  1.
<scales pt_clust_3="49.02996" pt_clust_4="525.32671" pt_clust_5="77.97389" pt_clust_6="14000.00000"></scales>
<clustering>
<clus scale="   49.030">  1  3  2 -1</clus>
<clus scale="   77.974">  1  5  2 -1</clus>
<clus scale="  525.327">  1  4  2 -1</clus>
<clus scale="   49.030">  1  3  2 -1</clus>
</clustering>
</event>
<event>
 6    0  0.1555973E+002  0.8526085E+02  0.7546771E-02  0.1314752E+00
         21   -1    0    0  504  501  0.00000000000E+00  0.00000000000E+00  0.48359707765E+03  0.48359707765E+03  0.00000000000E+00 0.  1.
         21   -1    0    0  506  502 -0.00000000000E+00 -0.00000000000E+00 -0.34465695225E+03  0.34465695225E+03  0.00000000000E+00 0.  1.
         21    1    1    2  503  502  0.53031831526E+02 -0.48752566858E+02  0.15160928141E+03  0.16785279902E+03  0.00000000000E+00 0.  1.
         21    1    1    2  504  503  0.26462975367E+02  0.23253525007E+02  0.77584347925E+02  0.85207667105E+02  0.00000000000E+00 0. -1.
         21    1    1    2  505  501 -0.11250418711E+03  0.91032241165E+01  0.22821364669E+03  0.25460072534E+03  0.00000000000E+00 0.  1.
         21    1    1    2  506  505  0.33009380215E+02  0.16395817734E+02 -0.31846715063E+03  0.32059283843E+03  0.00000000000E+00 0.  1.
<scales pt_clust_3="14000.00000" pt_clust_4="35.22805" pt_clust_5="85.26085" pt_clust_6="36.94702"></scales>
<clustering>
<clus scale="   35.228">  1  4  2 -1</clus>
<clus scale="   36.947">  2  6  1 -1</clus>
<clus scale="   85.261">  2  5  1 -1</clus>
<clus scale="   35.228">  1  3  2 -1</clus>
</clustering>
</event>
<event>
 6    0  0.1555973E+002  0.1160622E+03  0.7546771E-02  0.1249738E+00
         21   -1    0    0  505  501  0.00000000000E+00  0.00000000000E+00  0.31187056131E+03  0.31187056131E+03  0.00000000000E+00 0.  1.
         21   -1    0    0  506  502 -0.00000000000E+00 -0.00000000000E+00 -0.17823448537E+03  0.17823448537E+03  0.00000000000E+00 0. -1.
         21    1    1    2  503  504 -0.35697537006E+01  0.53469854918E+02  0.41793911408E+02  0.67959543533E+02  0.00000000000E+00 0.  1.
         21    1    1    2  504  501  0.35746201930E+02  0.22991185876E+02  0.50480639260E+02  0.65990003186E+02  0.00000000000E+00 0.  1.
         21    1    1    2  505  502  0.23223239960E+02  0.37730342077E+02  0.16986040925E+03  0.17554331722E+03  0.00000000000E+00 0.  1.
         21    1    1    2  506  503 -0.55399688190E+02 -0.11419138287E+03 -0.12849888398E+03  0.18061218275E+03  0.00000000000E+00 0. -1.
<scales pt_clust_3="58.59242" pt_clust_4="42.50160" pt_clust_5="14000.00000" pt_clust_6="116.06215"></scales>
<clustering>
<clus scale="   42.502">  1  4  2 -1</clus>
<clus scale="   58.592">  1  3  2 -1</clus>
<clus scale="  116.062">  2  6  1 -1</clus>
<clus scale="   42.502">  1  3  2 -1</clus>
</clustering>
</event>
<event>
 6    0  0.1555973E+002  0.6682344E+02  0.7546771E-02  0.1371241E+00
         21   -1    0    0  505  501  0.00000000000E+00  0.00000000000E+00  0.23951199108E+03  0.23951199108E+03  0.00000000000E+00 0. -1.
         21   -1    0    0  504  502 -0.00000000000E+00 -0.00000000000E+00 -0.34811928508E+03  0.34811928508E+03  0.00000000000E+00 0. -1.
         21    1    1    2  503  501 -0.57533377946E+02 -0.26283932606E+02  0.13278495768E+03  0.14708086102E+03  0.00000000000E+00 0. -1.
         21    1    1    2  504  506  0.26799036131E+02 -0.34368245994E+02 -0.28101450464E+03  0.28437390262E+03  0.00000000000E+00 0. -1.
         21    1    1    2  505  502  0.69088902758E+01  0.10065371971E+03  0.42614180259E+02  0.10952110489E+03  0.00000000000E+00 0. -1.
         21    1    1    2  506  503  0.23825451539E+02 -0.40001541113E+02 -0.29919272930E+01  0.46655407633E+02  0.00000000000E+00 0.  1.
<scales pt_clust_3="62.32245" pt_clust_4="43.58170" pt_clust_5="66.82344" pt_clust_6="14000.00000"></scales>
<clustering>
<clus scale="   43.582">  2  4  1 -1</clus>
<clus scale="   62.322">  1  3  2 -1</clus>
<clus scale="   66.823">  1  5  2 -1</clus>
<clus scale="   62.322">  1  3  2 -1</clus>
</clustering>
</event>
<event>
 6    0  0.1555973E+002  0.1347239E+03  0.7546771E-02  0.1220610E+00
         21   -1    0    0  506  501  0.00000000000E+00  0.00000000000E+00  0.30043159396E+03  0.30043159396E+03  0.00000000000E+00 0. -1.
         21   -1    0    0  503  502 -0.00000000000E+00 -0.00000000000E+00 -0.10173090637E+03  0.10173090637E+03  0.00000000000E+00 0. -1.
         21    1    1    2  503  501  0.29410031390E+02  0.56928779789E+02  0.12033279956E+02  0.65196899782E+02  0.00000000000E+00 0. -1.
         21    1    1    2  504  505  0.15202902170E+02 -0.32662584607E+02  0.13567106890E+02  0.38497260383E+02  0.00000000000E+00 0. -1.
         21    1    1    2  505  502 -0.93976633763E+02  0.61454159292E+02  0.16856764589E+02  0.11354458111E+03  0.00000000000E+00 0. -1.
         21    1    1    2  506  504  0.49363700203E+02 -0.85720354474E+02  0.15624353616E+03  0.18492375905E+03  0.00000000000E+00 0. -1.
<scales pt_clust_3="64.07680" pt_clust_4="32.48800" pt_clust_5="123.50146" pt_clust_6="32.48800"></scales>
<clustering>
<clus scale="   32.488">  4  6 -1 -1</clus>
<clus scale="   64.077">  2  3  1 -1</clus>
<clus scale="  123.501">  2  5  1 -1</clus>
<clus scale="  134.724">  1  3  2 -1</clus>
</clustering>
</event>
<event>
 6    0  0.1555973E+002  0.1017488E+03  0.7546771E-02  0.1276661E+00
         21   -1    0    0  504  501  0.00000000000E+00  0.00000000000E+00  0.58956308927E+02  0.58956308927E+02  0.00000000000E+00 0. -1.
         21   -1    0    0  503  502 -0.00000000000E+00 -0.00000000000E+00 -0.14737567389E+04  0.14737567389E+04  0.00000000000E+00 0. -1.
         21    1    1    2  503  505  0.94800117619E+01  0.73391106920E+02 -0.10121904710E+04  0.10148919523E+04  0.00000000000E+00 0. -1.
         21    1    1    2  504  502  0.11600730785E+03 -0.92009991039E+02 -0.16048892442E+03  0.21835802890E+03  0.00000000000E+00 0. -1.
         21    1    1    2  505  506 -0.91408738263E+02 -0.19490278152E+02 -0.22801765545E+03  0.24642946165E+03  0.00000000000E+00 0. -1.
         21    1    1    2  506  501 -0.34078581346E+02  0.38109162272E+02 -0.14103379079E+02  0.53033604979E+02  0.00000000000E+00 0. -1.
<scales pt_clust_3="75.15590" pt_clust_4="14000.00000" pt_clust_5="101.74883" pt_clust_6="51.12395"></scales>
<clustering>
<clus scale="   51.124">  1  6  2 -1</clus>
<clus scale="   75.156">  2  3  1 -1</clus>
<clus scale="  101.749">  2  5  1 -1</clus>
<clus scale="   51.124">  1  3  2 -1</clus>
</clustering>
</event>
<event>
 6    0  0.1555973E+002  0.1023507E+03  0.7546771E-02  0.1275429E+00
         21   -1    0    0  506  501  0.00000000000E+00  0.00000000000E+00  0.19258883242E+04  0.19258883242E+04  0.00000000000E+00 0.  1.
         21   -1    0    0  504  502 -0.00000000000E+00 -0.00000000000E+00 -0.97577485921E+02  0.97577485921E+02  0.00000000000E+00 0. -1.
         21    1    1    2  503  502 -0.58861182734E+02  0.61681079489E+02  0.25964951537E+03  0.27328934343E+03  0.00000000000E+00 0.  1.
         21    1    1    2  504  505 -0.48272010984E+02  0.25442702850E+02 -0.78215860007E+02  0.95368962086E+02  0.00000000000E+00 0. -1.
         21    1    1    2  505  501  0.63463035587E+02 -0.15918643472E+00  0.74369970312E+03  0.74640259288E+03  0.00000000000E+00 0.  1.
         21    1    1    2  506  503  0.43670158131E+02 -0.86964595905E+02  0.90317747979E+03  0.90840491173E+03  0.00000000000E+00 0. -1.
<scales pt_clust_3="14000.00000" pt_clust_4="54.56664" pt_clust_5="57.49406" pt_clust_6="102.35069"></scales>
<clustering>
<clus scale="   54.567">  2  4  1 -1</clus>
<clus scale="   57.494">  1  5  2 -1</clus>
<clus scale="  102.351">  1  6  2 -1</clus>
<clus scale="   57.494">  1  3  2 -1</clus>
</clustering>
</event>
<event>
 6    0  0.1555973E+002  0.1169715E+03  0.7546771E-02  0.1248178E+00
         21   -1    0    0  502  501  0.00000000000E+00  0.00000000000E+00  0.26005392671E+03  0.26005392671E+03  0.00000000000E+00 0. -1.
         21   -1    0    0  506  502 -0.00000000000E+00 -0.00000000000E+00 -0.20536011449E+04  0.20536011449E+04  0.00000000000E+00 0. -1.
         21    1    1    2  503  505 -0.15286177284E+03  0.55455542392E+02  0.79316307101E+01  0.16280340765E+03  0.00000000000E+00 0. -1.
         21    1    1    2  504  501  0.15569531748E+02 -0.44100962199E+02  0.49432841671E+02  0.68050797361E+02  0.00000000000E+00 0. -1.
         21    1    1    2  505  504  0.84805272857E+02 -0.16007252117E+02  0.99479566249E+02  0.13169795187E+03  0.00000000000E+00 0. -1.
         21    1    1    2  506  503  0.52486968231E+02  0.46526719240E+01 -0.19503912568E+04  0.19511029147E+04  0.00000000000E+00 0. -1.
<scales pt_clust_3="116.97154" pt_clust_4="46.76863" pt_clust_5="14000.00000" pt_clust_6="52.71337"></scales>
<clustering>
<clus scale="   46.769">  1  4  2 -1</clus>
<clus scale="   52.713">  2  6  1 -1</clus>
<clus scale="  116.972">  2  3  1 -1</clus>
<clus scale="   46.769">  1  3  2 -1</clus>
</clustering>
</event>
<event>
 6    0  0.1555973E+002  0.1324492E+03  0.7546771E-02  0.1223866E+00
         21   -1    0    0  502  501  0.00000000000E+00  0.00000000000E+00  0.15723876057E+04  0.15723876057E+04  0.00000000000E+00 0.  1.
         21   -1    0    0  506  502 -0.00000000000E+00 -0.00000000000E+00 -0.37250835819E+02  0.37250835819E+02  0.00000000000E+00 0.  1.
         21    1    1    2  503  504  0.79985457595E+02  0.23608627300E+02  0.23514528946E+03  0.24949618808E+03  0.00000000000E+00 0.  1.
         21    1    1    2  504  505 -0.59295836590E+02 -0.22589452210E+02  0.36718307640E+03  0.37262540330E+03  0.00000000000E+00 0.  1.
         21    1    1    2  505  501 -0.87835294479E+02 -0.37522861920E+02  0.89880705032E+03  0.90386786525E+03  0.00000000000E+00 0.  1.
         21    1    1    2  506  503  0.67145673474E+02  0.36503686830E+02  0.34001353676E+02  0.83648984873E+02  0.00000000000E+00 0.  1.
<scales pt_clust_3="126.88498" pt_clust_4="30.96173" pt_clust_5="30.96173" pt_clust_6="76.42683"></scales>
<clustering>
<clus scale="   30.962">  4  5 -1 -1</clus>
<clus scale="   76.427">  2  6  1 -1</clus>
<clus scale="  126.885">  2  3  1 -1</clus>
<clus scale="  132.449">  1  3  2 -1</clus>
</clustering>
</event>
<event>
 6    0  0.1555973E+002  0.1148152E+03  0.7546771E-02  0.1251904E+00
         21   -1    0    0  504  501  0.00000000000E+00  0.00000000000E+00  0.13394241189E+03  0.13394241189E+03  0.00000000000E+00 0.  1.
         21   -1    0    0  506  502 -0.00000000000E+00 -0.00000000000E+00 -0.14478308542E+04  0.14478308542E+04  0.00000000000E+00 0.  1.
         21    1    1    2  503  502  0.21756027316E+02  0.91662627068E+02 -0.42852086314E+01  0.94306547697E+02  0.00000000000E+00 0.  1.
         21    1    1    2  504  503 -0.24821754103E+02  0.90676554866E+02  0.30041585065E+02  0.98695764409E+02  0.00000000000E+00 0.  1.
         21    1    1    2  505  501  0.17257977482E+02 -0.85492699673E+02 -0.61111256546E+02  0.10649612745E+03  0.00000000000E+00 0.  1.
         21    1    1    2  506  505 -0.14192250695E+02 -0.96846482260E+02 -0.12785335622E+04  0.12822748266E+04  0.00000000000E+00 0.  1.
<scales pt_clust_3="57.64180" pt_clust_4="57.64180" pt_clust_5="87.21720" pt_clust_6="99.26235"></scales>
<clustering>
<clus scale="   57.642">  3  4 -1 -1</clus>
<clus scale="   87.217">  1  5  2 -1</clus>
<clus scale="   99.262">  2  6  1 -1</clus>
<clus scale="   87.217">  1  3  2 -1</clus>
</clustering>
</event>
<event>
 6    0  0.1555973E+002  0.2027739E+03  0.7546771E-02  0.1147420E+00
         21   -1    0    0  504  501  0.00000000000E+00  0.00000000000E+00  0.25846210310E+03  0.25846210310E+03  0.00000000000E+00 0.  1.
         21   -1    0    0  505  502 -0.00000000000E+00 -0.00000000000E+00 -0.34516729893E+03  0.34516729893E+03  0.00000000000E+00 0.  1.
         21    1    1    2  503  502  0.59130341806E+02  0.20965950586E+01 -0.97532845383E+01  0.59965986961E+02  0.00000000000E+00 0.  1.
         21    1    1    2  504  503  0.14986013342E+03 -0.67176140902E+02  0.10482078401E+03  0.19482836101E+03  0.00000000000E+00 0.  1.
         21    1    1    2  505  506 -0.80342043188E+02 -0.11858513899E+02 -0.18160345962E+03  0.19893537846E+03  0.00000000000E+00 0.  1.
         21    1    1    2  506  501 -0.12864843203E+03  0.76938059743E+02 -0.16923567721E+00  0.14989967559E+03  0.00000000000E+00 0.  1.
<scales pt_clust_3="53.58544" pt_clust_4="53.58544" pt_clust_5="81.21249" pt_clust_6="182.06393"></scales>
<clustering>
<clus scale="   53.585">  3  4 -1 -1</clus>
<clus scale="   81.212">  2  5  1 -1</clus>
<clus scale="  182.064">  2  6  1 -1</clus>
<clus scale="  202.774">  1  3  2 -1</clus>
</clustering>
</event>
<event>
 6    0  0.1555973E+002  0.2029769E+03  0.7546771E-02  0.1147251E+00
         21   -1    0    0  505  501  0.00000000000E+00  0.00000000000E+00  0.35678057704E+03  0.35678057704E+03  0.00000000000E+00 0.  1.
         21   -1    0    0  501  502 -0.00000000000E+00 -0.00000000000E+00 -0.14633761177E+03  0.14633761177E+03  0.00000000000E+00 0.  1.
         21    1    1    2  503  504  0.38656822917E+02  0.68324279669E+01 -0.13426645236E+02  0.41488634977E+02  0.00000000000E+00 0.  1.
         21    1    1    2  504  502  0.78508480865E+02  0.14144277033E+03  0.23923340756E+01  0.16178801597E+03  0.00000000000E+00 0.  1.
         21    1    1    2  505  506 -0.10151439628E+03 -0.97654483903E+02  0.19514975298E+03  0.24067612463E+03  0.00000000000E+00 0.  1.
         21    1    1    2  506  503 -0.15650907504E+02 -0.50620714399E+02  0.26327523449E+02  0.59165413232E+02  0.00000000000E+00 0.  1.
<scales pt_clust_3="36.48775" pt_clust_4="36.48775" pt_clust_5="202.12067" pt_clust_6="43.96871"></scales>
<clustering>
<clus scale="   36.488">  3  4 -1 -1</clus>
<clus scale="   43.969">  5  6 -1 -1</clus>
<clus scale="  202.121">  1  5  2 -1</clus>
<clus scale="  202.121">  1  3  2 -1</clus>
</clustering>
</event>
<event>
 6    0  0.1555973E+002  0.9303963E+02  0.7546771E-02  0.1295653E+00
         21   -1    0    0  503  501  0.00000000000E+00  0.00000000000E+00  0.18120642151E+04  0.18120642151E+04  0.00000000000E+00 0.  1.
         21   -1    0    0  506  502 -0.00000000000E+00 -0.00000000000E+00 -0.66305527728E+02  0.66305527728E+02  0.00000000000E+00 0. -1.
         21    1    1    2  503  502 -0.29219134355E+02 -0.95564325271E+01 -0.48046202916E+02  0.57039642616E+02  0.00000000000E+00 0. -1.
         21    1    1    2  504  501 -0.83928289926E+02 -0.52964196024E+02  0.82126190415E+03  0.82723653155E+03  0.00000000000E+00 0.  1.
         21    1    1    2  505  504  0.10122102040E+03 -0.29174881572E+02  0.65293594540E+03  0.66137902710E+03  0.00000000000E+00 0.  1.
         21    1    1    2  506  505  0.11926403880E+02  0.91695510123E+02  0.31960704076E+03  0.33271454159E+03  0.00000000000E+00 0. -1.
<scales pt_clust_3="30.74221" pt_clust_4="14000.00000" pt_clust_5="93.03963" pt_clust_6="87.16741"></scales>
<clustering>
<clus scale="   30.742">  2  3  1 -1</clus>
<clus scale="   87.167">  2  6  1 -1</clus>
<clus scale="   93.040">  2  5  1 -1</clus>
<clus scale="   93.040">  1  3  2 -1</clus>
</clustering>
</event>
<event>
 6    0  0.1555973E+002  0.4897121E+03  0.7546771E-02  0.1016500E+00
         21   -1    0    0  504  501  0.00000000000E+00  0.00000000000E+00  0.22193149604E+04  0.22193149604E+04  0.00000000000E+00 0. -1.
         21   -1    0    0  505  502 -0.00000000000E+00 -0.00000000000E+00 -0.47270090923E+03  0.47270090923E+03  0.00000000000E+00 0. -1.
         21    1    1    2  503  506 -0.33482715853E+03 -0.37442642302E+02  0.76186768392E+03  0.83303874181E+03  0.00000000000E+00 0. -1.
         21    1    1    2  504  502 -0.26855104064E+02  0.16806794960E+02 -0.13885479941E+03  0.14242303286E+03  0.00000000000E+00 0.  1.
         21    1    1    2  505  503  0.54973939215E+03 -0.15236068708E+03  0.63943409780E+01  0.57049808575E+03  0.00000000000E+00 0. -1.
         21    1    1    2  506  501 -0.18805712955E+03  0.17299653442E+03  0.11172068257E+04  0.11460560092E+04  0.00000000000E+00 0. -1.
<scales pt_clust_3="489.71213" pt_clust_4="31.68067" pt_clust_5="14000.00000" pt_clust_6="256.87846"></scales>
<clustering>
<clus scale="   31.681">  2  4  1 -1</clus>
<clus scale="  256.878">  1  6  2 -1</clus>
<clus scale="  489.712">  1  3  2 -1</clus>
<clus scale="  256.878">  1  3  2 -1</clus>
</clustering>
</event>
<event>
 6    0  0.1555973E+002  0.1364595E+03  0.7546771E-02  0.1218174E+00
         21   -1    0    0  505  501  0.00000000000E+00  0.00000000000E+00  0.77349085997E+03  0.77349085997E+03  0.00000000000E+00 0. -1.
         21   -1    0    0  503  502 -0.00000000000E+00 -0.00000000000E+00 -0.11772227527E+03  0.11772227527E+03  0.00000000000E+00 0. -1.
         21    1    1    2  503  501 -0.58917632957E+02 -0.49720541538E+02  0.15336801618E+03  0.17165421088E+03  0.00000000000E+00 0. -1.
         21    1    1    2  504  502  0.36203908986E+02  0.14258579203E+03 -0.46030522451E+02  0.15414356981E+03  0.00000000000E+00 0. -1.
         21    1    1    2  505  506 -0.34479502198E+02 -0.12700700164E+02  0.19945085822E+03  0.20280726984E+03  0.00000000000E+00 0. -1.
         21    1    1    2  506  504  0.57193226169E+02 -0.80164550330E+02  0.34898023275E+03  0.36260808472E+03  0.00000000000E+00 0. -1.
<scales pt_clust_3="86.97381" pt_clust_4="14000.00000" pt_clust_5="36.74430" pt_clust_6="136.45953"></scales>
<clustering>
<clus scale="   36.744">  1  5  2 -1</clus>
<clus scale="   86.974">  1  3  2 -1</clus>
<clus scale="  136.460">  1  6  2 -1</clus>
<clus scale="   36.744">  1  3  2 -1</clus>
</clustering>
</event>
<event>
 6    0  0.1555973E+002  0.1106229E+03  0.7546771E-02  0.1259421E+00
         21   -1    0    0  506  501  0.00000000000E+00  0.00000000000E+00  0.12322290706E+03  0.12322290706E+03  0.00000000000E+00 0. -1.
         21   -1    0    0  505  502 -0.00000000000E+00 -0.00000000000E+00 -0.41306341153E+03  0.41306341153E+03  0.00000000000E+00 0. -1.
         21    1    1    2  503  502 -0.12226583606E+02 -0.52735267180E+02 -0.29710954034E+03  0.30200095482E+03  0.00000000000E+00 0. -1.
         21    1    1    2  504  501  0.52770679972E+02 -0.17371920452E+02 -0.58857812702E+01  0.55867438693E+02  0.00000000000E+00 0. -1.
         21    1    1    2  505  504  0.48017959717E+02  0.15134491470E+01 -0.31909892246E+02  0.57673704640E+02  0.00000000000E+00 0. -1.
         21    1    1    2  506  503 -0.88562056084E+02  0.68593738485E+02  0.45064709388E+02  0.12074422044E+03  0.00000000000E+00 0. -1.
<scales pt_clust_3="54.13407" pt_clust_4="30.17902" pt_clust_5="30.17902" pt_clust_6="105.75530"></scales>
<clustering>
<clus scale="   30.179">  4  5 -1 -1</clus>
<clus scale="   54.134">  2  3  1 -1</clus>
<clus scale="  105.755">  1  6  2 -1</clus>
<clus scale="  105.755">  1  3  2 -1</clus>
</clustering>
</event>
<event>
 6    0  0.1555973E+002  0.1187914E+03  0.7546771E-02  0.1245104E+00
         21   -1    0    0  504  501  0.00000000000E+00  0.00000000000E+00  0.30803073183E+03  0.30803073183E+03  0.00000000000E+00 0.  1.
         21   -1    0    0  503  502 -0.00000000000E+00 -0.00000000000E+00 -0.78644371770E+02  0.78644371770E+02  0.00000000000E+00 0.  1.
         21    1    1    2  503  505 -0.28472638215E+02 -0.59769158279E+02  0.42889090611E+02  0.78882935428E+02  0.00000000000E+00 0.  1.
         21    1    1    2  504  506  0.31118353307E+02 -0.11340835921E+01  0.86552056824E+02  0.91983132142E+02  0.00000000000E+00 0.  1.
         21    1    1    2  505  501 -0.26341043990E+02 -0.44362415519E+02  0.94627266170E+02  0.10777844874E+03  0.00000000000E+00 0.  1.
         21    1    1    2  506  502  0.23695328899E+02  0.10526565739E+03  0.53179464573E+01  0.10803058730E+03  0.00000000000E+00 0.  1.
<scales pt_clust_3="39.11376" pt_clust_4="31.13901" pt_clust_5="39.11376" pt_clust_6="109.67042"></scales>
<clustering>
<clus scale="   31.139">  1  4  2 -1</clus>
<clus scale="   39.114">  3  5 -1 -1</clus>
<clus scale="  109.670">  2  6  1 -1</clus>
<clus scale="   31.139">  1  3  2 -1</clus>
</clustering>
</event>
<event>
 6    0  0.1555973E+002  0.8500612E+02  0.7546771E-02  0.1315417E+00
         21   -1    0    0  504  501  0.00000000000E+00  0.00000000000E+00  0.34887483762E+02  0.34887483762E+02  0.00000000000E+00 0. -1.
         21   -1    0    0  505  502 -0.00000000000E+00 -0.00000000000E+00 -0.22633259136E+04  0.22633259136E+04  0.00000000000E+00 0. -1.
         21    1    1    2  503  502  0.80180963503E+00 -0.32602549815E+02 -0.17545305260E+04  0.17548335921E+04  0.00000000000E+00 0. -1.
         21    1    1    2  504  506 -0.42270305543E+02  0.33636030137E+02 -0.26090613099E+02  0.59990677159E+02  0.00000000000E+00 0. -1.
         21    1    1    2  505  501 -0.21570073231E+02 -0.68197327319E+02 -0.30625229255E+03  0.31449421331E+03  0.00000000000E+00 0. -1.
         21    1    1    2  506  503  0.63038569139E+02  0.67163846997E+02 -0.14156499815E+03  0.16889491479E+03  0.00000000000E+00 0. -1.
<scales pt_clust_3="32.61241" pt_clust_4="52.29199" pt_clust_5="14000.00000" pt_clust_6="85.00612"></scales>
<clustering>
<clus scale="   32.612">  2  3  1 -1</clus>
<clus scale="   52.292">  1  4  2 -1</clus>
<clus scale="   85.006">  1  6  2 -1</clus>
<clus scale="   52.292">  1  3  2 -1</clus>
</clustering>
</event>
<event>
 6    0  0.1555973E+002  0.8745822E+02  0.7546771E-02  0.1309126E+00
         21   -1    0    0  505  501  0.00000000000E+00  0.00000000000E+00  0.59003279820E+03  0.59003279820E+03  0.00000000000E+00 0.  1.
         21   -1    0    0  506  502 -0.00000000000E+00 -0.00000000000E+00 -0.10441359888E+03  0.10441359888E+03  0.00000000000E+00 0. -1.
         21    1    1    2  503  501  0.47980594825E+02  0.44964674217E+02  0.32046424916E+03  0.32714109250E+03  0.00000000000E+00 0.  1.
         21    1    1    2  504  502 -0.90887985860E+02  0.52090714610E+01 -0.66889124370E+02  0.11296864768E+03  0.00000000000E+00 0. -1.
         21    1    1    2  505  504 -0.19475811895E+02 -0.34625151777E+02  0.83005551735E+02  0.92022442933E+02  0.00000000000E+00 0.  1.
         21    1    1    2  506  503  0.62383202929E+02 -0.15548593901E+02  0.14903852279E+03  0.16231421397E+03  0.00000000000E+00 0.  1.
<scales pt_clust_3="42.05419" pt_clust_4="87.45822" pt_clust_5="39.72667" pt_clust_6="14000.00000"></scales>
<clustering>
<clus scale="   39.727">  1  5  2 -1</clus>
<clus scale="   42.054">  1  3  2 -1</clus>
<clus scale="   87.458">  2  4  1 -1</clus>
<clus scale="   39.727">  1  3  2 -1</clus>
</clustering>
</event>
<event>
 6    0  0.1555973E+002  0.5781194E+02  0.7546771E-02  0.1407250E+00
         21   -1    0    0  504  501  0.00000000000E+00  0.00000000000E+00  0.20943097478E+03  0.20943097478E+03  0.00000000000E+00 0. -1.
         21   -1    0    0  503  502 -0.00000000000E+00 -0.00000000000E+00 -0.14305928729E+04  0.14305928729E+04  0.00000000000E+00 0.  1.
         21    1    1    2  503  501  0.11518826871E+03  0.32711407661E+02  0.16363131045E+03  0.20276483719E+03  0.00000000000E+00 0. -1.
         21    1    1    2  504  506 -0.37912912151E+02  0.39153113518E+01 -0.82131688836E+01  0.38989417973E+02  0.00000000000E+00 0. -1.
         21    1    1    2  505  502 -0.57581245073E+02  0.21776040681E+01 -0.13405105273E+04  0.13417484173E+04  0.00000000000E+00 0.  1.
         21    1    1    2  506  505 -0.19694111487E+02 -0.38804323081E+02 -0.36069512428E+02  0.56521175180E+02  0.00000000000E+00 0.  1.
<scales pt_clust_3="14000.00000" pt_clust_4="38.11455" pt_clust_5="57.81194" pt_clust_6="44.27585"></scales>
<clustering>
<clus scale="   38.115">  1  4  2 -1</clus>
<clus scale="   44.276">  1  6  2 -1</clus>
<clus scale="   57.812">  2  5  1 -1</clus>
<clus scale="   38.115">  1  3  2 -1</clus>
</clustering>
</event>
<event>
 6    0  0.1555973E+002  0.1040603E+03  0.7546771E-02  0.1271982E+00
         21   -1    0    0  505  501  0.00000000000E+00  0.00000000000E+00  0.20753672898E+04  0.20753672898E+04  0.00000000000E+00 0.  1.
         21   -1    0    0  504  502 -0.00000000000E+00 -0.00000000000E+00 -0.20484018936E+03  0.20484018936E+03  0.00000000000E+00 0. -1.
         21    1    1    2  503  502 -0.71986308962E+02  0.45244064471E+02  0.66150422474E+03  0.66694594488E+03  0.00000000000E+00 0.  1.
         21    1    1    2  504  501  0.10286918360E+03 -0.18796364976E+02 -0.18750235462E+03  0.21469165158E+03  0.00000000000E+00 0. -1.
         21    1    1    2  505  506  0.12084412193E+02 -0.30130107020E+02  0.58873309453E+03  0.58962743573E+03  0.00000000000E+00 0.  1.
         21    1    1    2  506  503 -0.42967286828E+02  0.36824075252E+01  0.80779213581E+03  0.80894244699E+03  0.00000000000E+00 0.  1.
<scales pt_clust_3="14000.00000" pt_clust_4="104.06029" pt_clust_5="32.46315" pt_clust_6="38.54853"></scales>
<clustering>
<clus scale="   32.463">  1  5  2 -1</clus>
<clus scale="   38.549">  1  6  2 -1</clus>
<clus scale="  104.060">  2  4  1 -1</clus>
<clus scale="   32.463">  1  3  2 -1</clus>
</clustering>
</event>
<event>
 6    0  0.1555973E+002  0.9708886E+02  0.7546771E-02  0.1286540E+00
         21   -1    0    0  503  501  0.00000000000E+00  0.00000000000E+00  0.19008196889E+03  0.19008196889E+03  0.00000000000E+00 0.  1.
         21   -1    0    0  504  502 -0.00000000000E+00 -0.00000000000E+00 -0.12325379591E+03  0.12325379591E+03  0.00000000000E+00 0.  1.
         21    1    1    2  503  505 -0.79183753692E+02  0.37956635100E+02  0.78154207393E+02  0.11755361811E+03  0.00000000000E+00 0.  1.
         21    1    1    2  504  506 -0.79596518674E+01  0.34872539593E+02 -0.15682949189E+01  0.35803765507E+02  0.00000000000E+00 0.  1.
         21    1    1    2  505  502 -0.27430029718E+02 -0.13866509488E+02 -0.39957382322E+01  0.30994395295E+02  0.00000000000E+00 0.  1.
         21    1    1    2  506  501  0.11457343528E+03 -0.58962665205E+02 -0.57620012640E+01  0.12898398590E+03  0.00000000000E+00 0.  1.
<scales pt_clust_3="97.08886" pt_clust_4="34.85997" pt_clust_5="30.73575" pt_clust_6="14000.00000"></scales>
<clustering>
<clus scale="   30.736">  2  5  1 -1</clus>
<clus scale="   34.860">  2  4  1 -1</clus>
<clus scale="   97.089">  1  3  2 -1</clus>
<clus scale="   97.089">  1  3  2 -1</clus>
</clustering>
</event>
<event>
 6    0  0.1555973E+002  0.1498759E+03  0.7546771E-02  0.1200626E+00
         21   -1    0    0  502  501  0.00000000000E+00  0.00000000000E+00  0.14266788197E+03  0.14266788197E+03  0.00000000000E+00 0. -1.
         21   -1    0    0  505  502 -0.00000000000E+00 -0.00000000000E+00 -0.59035318279E+03  0.59035318279E+03  0.00000000000E+00 0. -1.
         21    1    1    2  503  501 -0.37208513819E+02  0.22753901286E+02  0.43986969017E+02  0.61944063216E+02  0.00000000000E+00 0. -1.
         21    1    1    2  504  503 -0.99074008281E+02  0.49394395131E+02  0.21653283878E+02  0.11280217236E+03  0.00000000000E+00 0. -1.
         21    1    1    2  505  506  0.55180791895E+02  0.20231140180E+01 -0.38662881408E+03  0.39055198458E+03  0.00000000000E+00 0. -1.
         21    1    1    2  506  504  0.81101730205E+02 -0.74171410435E+02 -0.12669673963E+03  0.16772284460E+03  0.00000000000E+00 0. -1.
<scales pt_clust_3="31.06372" pt_clust_4="31.06372" pt_clust_5="55.21787" pt_clust_6="141.46907"></scales>
<clustering>
<clus scale="   31.064">  3  4 -1 -1</clus>
<clus scale="   55.218">  2  5  1 -1</clus>
<clus scale="  141.469">  2  6  1 -1</clus>
<clus scale="  149.876">  1  3  2 -1</clus>
</clustering>
</event>
<event>
 6    0  0.1555973E+002  0.1118028E+03  0.7546771E-02  0.1257267E+00
         21   -1    0    0  506  501  0.00000000000E+00  0.00000000000E+00  0.48165658387E+02  0.48165658387E+02  0.00000000000E+00 0. -1.
         21   -1    0    0  504  502 -0.00000000000E+00 -0.00000000000E+00 -0.27945982106E+04  0.27945982106E+04  0.00000000000E+00 0. -1.
         21    1    1    2  503  505 -0.82966275425E+01 -0.40548274360E+02 -0.67143835040E+02  0.78875161908E+02  0.00000000000E+00 0. -1.
         21    1    1    2  504  503  0.33016592656E+02 -0.65459354549E+01 -0.24473771695E+04  0.24476086195E+04  0.00000000000E+00 0. -1.
         21    1    1    2  505  501 -0.58039901630E+02 -0.49306127827E+02 -0.19235478542E+03  0.20688182108E+03  0.00000000000E+00 0. -1.
         21    1    1    2  506  502  0.33319936517E+02  0.96400337642E+02 -0.39556762285E+02  0.10939826648E+03  0.00000000000E+00 0. -1.
<scales pt_clust_3="31.64973" pt_clust_4="33.65924" pt_clust_5="31.64973" pt_clust_6="103.23130"></scales>
<clustering>
<clus scale="   31.650">  3  5 -1 -1</clus>
<clus scale="   33.659">  2  4  1 -1</clus>
<clus scale="  103.231">  1  6  2 -1</clus>
<clus scale="  103.231">  1  3  2 -1</clus>
</clustering>
</event>
<event>
 6    0  0.1555973E+002  0.7480908E+02  0.7546771E-02  0.1344463E+00
         21   -1    0    0  503  501  0.00000000000E+00  0.00000000000E+00  0.19061884492E+04  0.19061884492E+04  0.00000000000E+00 0.  1.
         21   -1    0    0  504  502 -0.00000000000E+00 -0.00000000000E+00 -0.22509818833E+02  0.22509818833E+02  0.00000000000E+00 0.  1.
         21    1    1    2  503  505 -0.46676347985E+02  0.12449241652E+02  0.55726520340E+03  0.55935513942E+03  0.00000000000E+00 0.  1.
         21    1    1    2  504  501  0.15314548709E+02 -0.26649729474E+02  0.22316804463E+03  0.22527476473E+03  0.00000000000E+00 0.  1.
         21    1    1    2  505  506  0.84226478817E+02  0.64034459482E+02  0.10466265697E+04  0.10519608777E+04  0.00000000000E+00 0.  1.
         21    1    1    2  506  502 -0.52864679541E+02 -0.49833971659E+02  0.56618812680E+02  0.92107486252E+02  0.00000000000E+00 0.  1.
<scales pt_clust_3="41.74863" pt_clust_4="30.73668" pt_clust_5="74.80908" pt_clust_6="14000.00000"></scales>
<clustering>
<clus scale="   30.737">  1  4  2 -1</clus>
<clus scale="   41.749">  1  3  2 -1</clus>
<clus scale="   74.809">  1  5  2 -1</clus>
<clus scale="   30.737">  1  3  2 -1</clus>
</clustering>
</event>
<event>
 6    0  0.1555973E+002  0.1139141E+03  0.7546771E-02  0.1253489E+00
         21   -1    0    0  506  501  0.00000000000E+00  0.00000000000E+00  0.65761045473E+02  0.65761045473E+02  0.00000000000E+00 0. -1.
         21   -1    0    0  505  502 -0.00000000000E+00 -0.00000000000E+00 -0.81975129977E+03  0.81975129977E+03  0.00000000000E+00 0. -1.
         21    1    1    2  503  502  0.70286853644E+02 -0.15599123542E+03 -0.27973009333E+03  0.32790613358E+03  0.00000000000E+00 0. -1.
         21    1    1    2  504  501  0.27573219723E+02  0.62417799241E+02 -0.11866420221E+03  0.13688483113E+03  0.00000000000E+00 0. -1.
         21    1    1    2  505  504 -0.27171783947E+02  0.21791873119E+02 -0.30681962598E+03  0.30879034062E+03  0.00000000000E+00 0. -1.
         21    1    1    2  506  503 -0.70688289420E+02  0.71781563062E+02 -0.48776332786E+02  0.11193103992E+03  0.00000000000E+00 0. -1.
<scales pt_clust_3="113.91411" pt_clust_4="70.97059" pt_clust_5="34.83090" pt_clust_6="14000.00000"></scales>
<clustering>
<clus scale="   34.831">  2  5  1 -1</clus>
<clus scale="   70.971">  2  4  1 -1</clus>
<clus scale="  113.914">  2  3  1 -1</clus>
<clus scale="  113.914">  1  3  2 -1</clus>
</clustering>
</event>
<event>
 6    0  0.1555973E+002  0.1125283E+03  0.7546771E-02  0.1255958E+00
         21   -1    0    0  506  501  0.00000000000E+00  0.00000000000E+00  0.63699944021E+03  0.63699944021E+03  0.00000000000E+00 0.  1.
         21   -1    0    0  503  502 -0.00000000000E+00 -0.00000000000E+00 -0.40890662743E+02  0.40890662743E+02  0.00000000000E+00 0.  1.
         21    1    1    2  503  501  0.45219971159E+02 -0.10379938051E+03  0.71958838426E+02  0.13415376109E+03  0.00000000000E+00 0.  1.
         21    1    1    2  504  502 -0.36422375708E+02  0.59756760800E+01  0.11116910291E+03  0.11713610715E+03  0.00000000000E+00 0.  1.
         21    1    1    2  505  504 -0.25595796621E+02  0.49316943264E+02  0.20912471244E+03  0.21638033887E+03  0.00000000000E+00 0.  1.
         21    1    1    2  506  505  0.16798201170E+02  0.48506761166E+02  0.20385612370E+03  0.21021989585E+03  0.00000000000E+00 0.  1.
<scales pt_clust_3="104.50380" pt_clust_4="34.01284" pt_clust_5="34.01284" pt_clust_6="51.33308"></scales>
<clustering>
<clus scale="   34.013">  4  5 -1 -1</clus>
<clus scale="   51.333">  1  6  2 -1</clus>
<clus scale="  104.504">  2  3  1 -1</clus>
<clus scale="   51.333">  1  3  2 -1</clus>
</clustering>
</event>
<event>
 6    0  0.1555973E+002  0.1569624E+03  0.7546771E-02  0.1192169E+00
         21   -1    0    0  504  501  0.00000000000E+00  0.00000000000E+00  0.66502558580E+03  0.66502558580E+03  0.00000000000E+00 0. -1.
         21   -1    0    0  503  502 -0.00000000000E+00 -0.00000000000E+00 -0.17770438778E+03  0.17770438778E+03  0.00000000000E+00 0. -1.
         21    1    1    2  503  501 -0.56165437260E+02  0.29829524206E+02 -0.11905032661E+03  0.13497161599E+03  0.00000000000E+00 0. -1.
         21    1    1    2  504  505  0.10825555316E+03 -0.30637058896E+02  0.45726554797E+03  0.47090304260E+03  0.00000000000E+00 0. -1.
         21    1    1    2  505  506  0.50684587360E+02 -0.15637957382E+02  0.11613682895E+03  0.12767629438E+03  0.00000000000E+00 0. -1.
         21    1    1    2  506  502 -0.10277470326E+03  0.16445492072E+02  0.32969147720E+02  0.10917902061E+03  0.00000000000E+00 0. -1.
<scales pt_clust_3="63.59526" pt_clust_4="31.49206" pt_clust_5="31.49206" pt_clust_6="150.11198"></scales>
<clustering>
<clus scale="   31.492">  4  5 -1 -1</clus>
<clus scale="   63.595">  2  3  1 -1</clus>
<clus scale="  150.112">  2  6  1 -1</clus>
<clus scale="  156.962">  1  3  2 -1</clus>
</clustering>
</event>
<event>
 6    0  0.1555973E+002  0.9882713E+02  0.7546771E-02  0.1282782E+00
         21   -1    0    0  503  501  0.00000000000E+00  0.00000000000E+00  0.11296644807E+03  0.11296644807E+03  0.00000000000E+00 0. -1.
         21   -1    0    0  504  502 -0.00000000000E+00 -0.00000000000E+00 -0.41176518989E+03  0.41176518989E+03  0.00000000000E+00 0. -1.
         21    1    1    2  503  506  0.50203822671E+02 -0.73691324124E+01 -0.21796355599E+02  0.55225076194E+02  0.00000000000E+00 0. -1.
         21    1    1    2  504  501  0.93636929623E+02  0.27917871706E+02 -0.25634300103E+03  0.27433376811E+03  0.00000000000E+00 0. -1.
         21    1    1    2  505  502 -0.11813518448E+03  0.41989252442E+02 -0.23228238803E+02  0.12750909854E+03  0.00000000000E+00 0. -1.
         21    1    1    2  506  505 -0.25705567810E+02 -0.62537991736E+02  0.25688536063E+01  0.67663695108E+02  0.00000000000E+00 0. -1.
<scales pt_clust_3="50.74178" pt_clust_4="14000.00000" pt_clust_5="98.82713" pt_clust_6="65.64375"></scales>
<clustering>
<clus scale="   50.742">  1  3  2 -1</clus>
<clus scale="   65.644">  1  6  2 -1</clus>
<clus scale="   98.827">  1  5  2 -1</clus>
<clus scale="   50.742">  1  3  2 -1</clus>
</clustering>
</event>
<event>
 6    0  0.1555973E+002  0.1957874E+03  0.7546771E-02  0.1153343E+00
         21   -1    0    0  506  501  0.00000000000E+00  0.00000000000E+00  0.27886747314E+03  0.27886747314E+03  0.00000000000E+00 0.  1.
         21   -1    0    0  501  502 -0.00000000000E+00 -0.00000000000E+00 -0.48667639634E+03  0.48667639634E+03  0.00000000000E+00 0. -1.
         21    1    1    2  503  505 -0.90743693130E+02  0.16184870422E+03  0.13032722169E+03  0.22674788999E+03  0.00000000000E+00 0.  1.
         21    1    1    2  504  503 -0.42035520100E+02  0.13095366434E+01  0.19467168207E+02  0.46342965747E+02  0.00000000000E+00 0. -1.
         21    1    1    2  505  502  0.14862483737E+03 -0.13136434615E+03 -0.39429772309E+03  0.44138036675E+03  0.00000000000E+00 0. -1.
         21    1    1    2  506  504 -0.15845624141E+02 -0.31793894716E+02  0.36694409996E+02  0.51072646990E+02  0.00000000000E+00 0.  1.
<scales pt_clust_3="14000.00000" pt_clust_4="44.36584" pt_clust_5="195.78742" pt_clust_6="35.52373"></scales>
<clustering>
<clus scale="   35.524">  1  6  2 -1</clus>
<clus scale="   44.366">  1  4  2 -1</clus>
<clus scale="  195.787">  2  5  1 -1</clus>
<clus scale="   35.524">  1  3  2 -1</clus>
</clustering>
</event>
<event>
 6    0  0.1555973E+002  0.1853643E+03  0.7546771E-02  0.1162710E+00
         21   -1    0    0  504  501  0.00000000000E+00  0.00000000000E+00  0.40798637669E+03  0.40798637669E+03  0.00000000000E+00 0.  1.
         21   -1    0    0  506  502 -0.00000000000E+00 -0.00000000000E+00 -0.34435399825E+03  0.34435399825E+03  0.00000000000E+00 0. -1.
         21    1    1    2  503  502  0.11134031518E+03 -0.25172425974E+02 -0.24031812077E+03  0.26605096501E+03  0.00000000000E+00 0. -1.
         21    1    1    2  504  503  0.10569525534E+03  0.84239166281E+02  0.54618133735E+02  0.14577676313E+03  0.00000000000E+00 0.  1.
         21    1    1    2  505  501 -0.79996173720E+02 -0.50178070115E+02  0.10766949578E+03  0.14321294233E+03  0.00000000000E+00 0.  1.
         21    1    1    2  506  505 -0.13703939680E+03 -0.88886701919E+01  0.14166286970E+03  0.19729970447E+03  0.00000000000E+00 0.  1.
<scales pt_clust_3="114.15041" pt_clust_4="176.55317" pt_clust_5="46.82744" pt_clust_6="46.82744"></scales>
<clustering>
<clus scale="   46.827">  5  6 -1 -1</clus>
<clus scale="  114.150">  2  3  1 -1</clus>
<clus scale="  176.553">  2  4  1 -1</clus>
<clus scale="  185.364">  1  3  2 -1</clus>
</clustering>
</event>
<event>
 6    0  0.1555973E+002  0.1415480E+03  0.7546771E-02  0.1211261E+00
         21   -1    0    0  505  501  0.00000000000E+00  0.00000000000E+00  0.10887339696E+04  0.10887339696E+04  0.00000000000E+00 0.  1.
         21   -1    0    0  504  502 -0.00000000000E+00 -0.00000000000E+00 -0.11103514542E+03  0.11103514542E+03  0.00000000000E+00 0.  1.
         21    1    1    2  503  501  0.11829463546E+03 -0.31682627954E+02  0.79698766643E+03  0.80634158403E+03  0.00000000000E+00 0.  1.
         21    1    1    2  504  503 -0.53202089488E+02 -0.87375294226E+02 -0.32950818243E+02  0.10747400053E+03  0.00000000000E+00 0.  1.
         21    1    1    2  505  506  0.38276541967E+02  0.12224212622E+02  0.59469884138E+02  0.71771806154E+02  0.00000000000E+00 0. -1.
         21    1    1    2  506  502 -0.10336908794E+03  0.10683370956E+03  0.15419209190E+03  0.21418172434E+03  0.00000000000E+00 0. -1.
<scales pt_clust_3="141.54804" pt_clust_4="101.19741" pt_clust_5="40.18115" pt_clust_6="14000.00000"></scales>
<clustering>
<clus scale="   40.181">  1  5  2 -1</clus>
<clus scale="  101.197">  2  4  1 -1</clus>
<clus scale="  141.548">  1  3  2 -1</clus>
<clus scale="   40.181">  1  3  2 -1</clus>
</clustering>
</event>
<event>
 6    0  0.1555973E+002  0.1359377E+03  0.7546771E-02  0.1218902E+00
         21   -1    0    0  506  501  0.00000000000E+00  0.00000000000E+00  0.17553312117E+04  0.17553312117E+04  0.00000000000E+00 0. -1.
         21   -1    0    0  503  502 -0.00000000000E+00 -0.00000000000E+00 -0.95312087536E+02  0.95312087536E+02  0.00000000000E+00 0. -1.
         21    1    1    2  503  504 -0.86081140915E+02  0.41907609472E+01 -0.53037142839E+02  0.10119517686E+03  0.00000000000E+00 0. -1.
         21    1    1    2  504  505 -0.13970605791E+02  0.11152489721E+03  0.28049820178E+03  0.30217912192E+03  0.00000000000E+00 0. -1.
         21    1    1    2  505  501 -0.32512753544E+02 -0.82800335356E+01  0.31111869668E+03  0.31292248485E+03  0.00000000000E+00 0.  1.
         21    1    1    2  506  502  0.13256450025E+03 -0.10743562462E+03  0.11214393685E+04  0.11343465156E+04  0.00000000000E+00 0. -1.
<scales pt_clust_3="86.71830" pt_clust_4="135.93766" pt_clust_5="33.55053" pt_clust_6="14000.00000"></scales>
<clustering>
<clus scale="   33.551">  1  5  2 -1</clus>
<clus scale="   86.718">  2  3  1 -1</clus>
<clus scale="  135.938">  2  4  1 -1</clus>
<clus scale="   33.551">  1  3  2 -1</clus>
</clustering>
</event>
<event>
 6    0  0.1555973E+002  0.2147652E+03  0.7546771E-02  0.1137847E+00
         21   -1    0    0  503  501  0.00000000000E+00  0.00000000000E+00  0.72580654282E+03  0.72580654282E+03  0.00000000000E+00 0.  1.
         21   -1    0    0  504  502 -0.00000000000E+00 -0.00000000000E+00 -0.11957499570E+03  0.11957499570E+03  0.00000000000E+00 0. -1.
         21    1    1    2  503  505  0.13504731230E+03 -0.10809866114E+03  0.19050438399E+03  0.25732278838E+03  0.00000000000E+00 0. -1.
         21    1    1    2  504  501 -0.19519655166E+03  0.15462006538E+02  0.31230675248E+03  0.36861399196E+03  0.00000000000E+00 0.  1.
         21    1    1    2  505  506  0.74964277418E+02 -0.16848711086E+02  0.70201156707E+02  0.10407557041E+03  0.00000000000E+00 0. -1.
         21    1    1    2  506  502 -0.14815038058E+02  0.10948536569E+03  0.33219253931E+02  0.11536918776E+03  0.00000000000E+00 0.  1.
<scales pt_clust_3="36.04254" pt_clust_4="207.84467" pt_clust_5="36.04254" pt_clust_6="110.48317"></scales>
<clustering>
<clus scale="   36.043">  3  5 -1 -1</clus>
<clus scale="  110.483">  2  6  1 -1</clus>
<clus scale="  207.845">  1  4  2 -1</clus>
<clus scale="  207.845">  1  3  2 -1</clus>
</clustering>
</event>
<event>
 6    0  0.1555973E+002  0.1080158E+03  0.7546771E-02  0.1264289E+00
         21   -1    0    0  503  501  0.00000000000E+00  0.00000000000E+00  0.10406364186E+03  0.10406364186E+03  0.00000000000E+00 0. -1.
         21   -1    0    0  504  502 -0.00000000000E+00 -0.00000000000E+00 -0.31912721818E+03  0.31912721818E+03  0.00000000000E+00 0. -1.
         21    1    1    2  503  505 -0.51857862838E+02 -0.90372030904E+02  0.36710444706E+02  0.11047170977E+03  0.00000000000E+00 0. -1.
         21    1    1    2  504  506  0.49088317406E+02  0.17616314710E+02 -0.78223603773E+02  0.94015581883E+02  0.00000000000E+00 0. -1.
         21    1    1    2  505  502 -0.41890235737E+02  0.47587772571E+02 -0.14887214949E+03  0.16180947080E+03  0.00000000000E+00 0. -1.
         21    1    1    2  506  501  0.44659781170E+02  0.25167943624E+02 -0.24678267772E+02  0.56894097590E+02  0.00000000000E+00 0. -1.
<scales pt_clust_3="100.50709" pt_clust_4="39.23019" pt_clust_5="63.39864" pt_clust_6="39.23019"></scales>
<clustering>
<clus scale="   39.230">  4  6 -1 -1</clus>
<clus scale="   63.399">  2  5  1 -1</clus>
<clus scale="  100.507">  1  3  2 -1</clus>
<clus scale="  100.507">  1  3  2 -1</clus>
</clustering>
</event>
<event>
 6    0  0.1555973E+002  0.1066480E+03  0.7546771E-02  0.1266906E+00
         21   -1    0    0  506  501  0.00000000000E+00  0.00000000000E+00  0.27262044888E+04  0.27262044888E+04  0.00000000000E+00 0. -1.
         21   -1    0    0  503  502 -0.00000000000E+00 -0.00000000000E+00 -0.16326390145E+02  0.16326390145E+02  0.00000000000E+00 0. -1.
         21    1    1    2  503  501  0.64781871841E+02 -0.69452934494E+01  0.15561973428E+04  0.15575606241E+04  0.00000000000E+00 0. -1.
         21    1    1    2  504  502 -0.10482841443E+03 -0.46151246719E+02  0.23506112320E+03  0.26148167371E+03  0.00000000000E+00 0. -1.
         21    1    1    2  505  504  0.44726657966E+02  0.23195909796E+02  0.30586269090E+03  0.30998469292E+03  0.00000000000E+00 0. -1.
         21    1    1    2  506  505 -0.46801153787E+01  0.29900630372E+02  0.61275694175E+03  0.61350388820E+03  0.00000000000E+00 0. -1.
<scales pt_clust_3="106.64801" pt_clust_4="14000.00000" pt_clust_5="51.95292" pt_clust_6="30.26469"></scales>
<clustering>
<clus scale="   30.265">  1  6  2 -1</clus>
<clus scale="   51.953">  1  5  2 -1</clus>
<clus scale="  106.648">  1  3  2 -1</clus>
<clus scale="   30.265">  1  3  2 -1</clus>
</clustering>
</event>
<event>
 6    0  0.1555973E+002  0.1361925E+03  0.7546771E-02  0.1218546E+00
         21   -1    0    0  506  501  0.00000000000E+00  0.00000000000E+00  0.35983720922E+03  0.35983720922E+03  0.00000000000E+00 0. -1.
         21   -1    0    0  505  502 -0.00000000000E+00 -0.00000000000E+00 -0.24184120171E+03  0.24184120171E+03  0.00000000000E+00 0. -1.
         21    1    1    2  503  502 -0.53325703667E+02 -0.11242545128E+03 -0.19035385459E+03  0.22741526494E+03  0.00000000000E+00 0. -1.
         21    1    1    2  504  503  0.14370771457E+02  0.10802247892E+03  0.14143858247E+03  0.17855040643E+03  0.00000000000E+00 0. -1.
         21    1    1    2  505  501 -0.19445073717E+00 -0.41626519661E+02  0.63043693473E+02  0.75546755304E+02  0.00000000000E+00 0. -1.
         21    1    1    2  506  504  0.39149382947E+02  0.46029492021E+02  0.10386758615E+03  0.12016598426E+03  0.00000000000E+00 0. -1.
<scales pt_clust_3="126.84025" pt_clust_4="36.93310" pt_clust_5="41.62697" pt_clust_6="36.93310"></scales>
<clustering>
<clus scale="   36.933">  4  6 -1 -1</clus>
<clus scale="   41.627">  1  5  2 -1</clus>
<clus scale="  126.840">  2  3  1 -1</clus>
<clus scale="   41.627">  1  3  2 -1</clus>
</clustering>
</event>
<event>
 6    0  0.1555973E+002  0.1137396E+03  0.7546771E-02  0.1253797E+00
         21   -1    0    0  503  501  0.00000000000E+00  0.00000000000E+00  0.64806412947E+03  0.64806412947E+03  0.00000000000E+00 0.  1.
         21   -1    0    0  505  502 -0.00000000000E+00 -0.00000000000E+00 -0.31608137210E+03  0.31608137210E+03  0.00000000000E+00 0.  1.
         21    1    1    2  503  506  0.39968270927E+02  0.15447767190E+02  0.41509194395E+03  0.41729775715E+03  0.00000000000E+00 0.  1.
         21    1    1    2  504  501 -0.68223120445E+02  0.71702724023E+02  0.15113085610E+03  0.18065494862E+03  0.00000000000E+00 0.  1.
         21    1    1    2  505  504 -0.71097996176E+01 -0.11670018017E+03 -0.27865488587E+03  0.30218872700E+03  0.00000000000E+00 0.  1.
         21    1    1    2  506  502  0.35364649135E+02  0.29549688959E+02  0.44414843193E+02  0.64004068792E+02  0.00000000000E+00 0.  1.
<scales pt_clust_3="42.84969" pt_clust_4="113.73963" pt_clust_5="14000.00000" pt_clust_6="55.66472"></scales>
<clustering>
<clus scale="   42.850">  1  3  2 -1</clus>
<clus scale="   55.665">  1  6  2 -1</clus>
<clus scale="  113.740">  1  4  2 -1</clus>
<clus scale="   42.850">  1  3  2 -1</clus>
</clustering>
</event>
<event>
 6    0  0.1555973E+002  0.2099317E+03  0.7546771E-02  0.1141620E+00
         21   -1    0    0  503  501  0.00000000000E+00  0.00000000000E+00  0.79669086750E+03  0.79669086750E+03  0.00000000000E+00 0.  1.
         21   -1    0    0  506  502 -0.00000000000E+00 -0.00000000000E+00 -0.13649240111E+04  0.13649240111E+04  0.00000000000E+00 0.  1.
         21    1    1    2  503  502  0.77780565250E+02  0.58853578614E+00  0.14769994819E+02  0.79172693853E+02  0.00000000000E+00 0.  1.
         21    1    1    2  504  501 -0.21152991589E+03 -0.11409938840E+03  0.40047795095E+03  0.46706120043E+03  0.00000000000E+00 0.  1.
         21    1    1    2  505  504  0.42949403823E+02  0.23859070568E+03  0.26396497447E+03  0.35839598753E+03  0.00000000000E+00 0.  1.
         21    1    1    2  506  505  0.90799946817E+02 -0.12507985307E+03 -0.12474460639E+04  0.12569849968E+04  0.00000000000E+00 0.  1.
<scales pt_clust_3="77.78279" pt_clust_4="209.93171" pt_clust_5="14000.00000" pt_clust_6="154.85079"></scales>
<clustering>
<clus scale="   77.783">  1  3  2 -1</clus>
<clus scale="  154.851">  2  6  1 -1</clus>
<clus scale="  209.932">  1  4  2 -1</clus>
<clus scale="   77.783">  1  3  2 -1</clus>
</clustering>
</event>
<event>
 6    0  0.1555973E+002  0.2410199E+03  0.7546771E-02  0.1119115E+00
         21   -1    0    0  505  501  0.00000000000E+00  0.00000000000E+00  0.16961616559E+03  0.16961616559E+03  0.00000000000E+00 0.  1.
         21   -1    0    0  504  502 -0.00000000000E+00 -0.00000000000E+00 -0.91091293973E+03  0.91091293973E+03  0.00000000000E+00 0.  1.
         21    1    1    2  503  501  0.50288556091E+02  0.20349757133E+03  0.17239307813E+02  0.21032687452E+03  0.00000000000E+00 0.  1.
         21    1    1    2  504  506 -0.77274667180E+02 -0.59111089855E+02 -0.70093451666E+02  0.11991074638E+03  0.00000000000E+00 0. -1.
         21    1    1    2  505  502  0.70635791539E+02  0.21675286867E+02 -0.45246009585E+03  0.45845323801E+03  0.00000000000E+00 0.  1.
         21    1    1    2  506  503 -0.43649680450E+02 -0.16606176834E+03 -0.23598253444E+03  0.29183824641E+03  0.00000000000E+00 0.  1.
<scales pt_clust_3="218.08570" pt_clust_4="75.45428" pt_clust_5="73.88662" pt_clust_6="75.45428"></scales>
<clustering>
<clus scale="   73.887">  2  5  1 -1</clus>
<clus scale="   75.454">  4  6 -1 -1</clus>
<clus scale="  218.086">  1  3  2 -1</clus>
<clus scale="  218.086">  1  3  2 -1</clus>
</clustering>
</event>
<event>
 6    0  0.1555973E+002  0.2042319E+03  0.7546771E-02  0.1146217E+00
         21   -1    0    0  503  501  0.00000000000E+00  0.00000000000E+00  0.21960869582E+03  0.21960869582E+03  0.00000000000E+00 0. -1.
         21   -1    0    0  506  502 -0.00000000000E+00 -0.00000000000E+00 -0.73884606479E+03  0.73884606479E+03  0.00000000000E+00 0. -1.
         21    1    1    2  503  502  0.75570708540E+01  0.77352029764E+02 -0.64266613476E+02  0.10084960801E+03  0.00000000000E+00 0. -1.
         21    1    1    2  504  505  0.15122491160E+02 -0.53558480423E+02  0.25064818731E+01  0.55708913249E+02  0.00000000000E+00 0.  1.
         21    1    1    2  505  501 -0.24738297399E+02 -0.13898827130E+03  0.13678396439E+03  0.19656951908E+03  0.00000000000E+00 0. -1.
         21    1    1    2  506  504  0.20587353855E+01  0.11519472196E+03 -0.59426120175E+03  0.60532672027E+03  0.00000000000E+00 0. -1.
<scales pt_clust_3="77.72031" pt_clust_4="52.81493" pt_clust_5="52.81493" pt_clust_6="186.10427"></scales>
<clustering>
<clus scale="   52.815">  4  5 -1 -1</clus>
<clus scale="   77.720">  2  3  1 -1</clus>
<clus scale="  186.104">  2  6  1 -1</clus>
<clus scale="  204.232">  1  3  2 -1</clus>
</clustering>
</event>
<event>
 6    0  0.1555973E+002  0.4618943E+03  0.7546771E-02  0.1024233E+00
         21   -1    0    0  502  501  0.00000000000E+00  0.00000000000E+00  0.72988567986E+03  0.72988567986E+03  0.00000000000E+00 0. -1.
         21   -1    0    0  504  502 -0.00000000000E+00 -0.00000000000E+00 -0.81907555275E+03  0.81907555275E+03  0.00000000000E+00 0. -1.
         21    1    1    2  503  505  0.21445164709E+03 -0.23522389887E+03  0.35831902375E+03  0.47928312543E+03  0.00000000000E+00 0. -1.
         21    1    1    2  504  503 -0.31504656452E+03  0.30209640613E+03 -0.67446411479E+03  0.80337937399E+03  0.00000000000E+00 0. -1.
         21    1    1    2  505  506  0.40910196079E+02 -0.29200308956E+01  0.30074207036E+02  0.50858909273E+02  0.00000000000E+00 0. -1.
         21    1    1    2  506  501  0.59684721351E+02 -0.63952476362E+02  0.19688101112E+03  0.21543982393E+03  0.00000000000E+00 0. -1.
<scales pt_clust_3="52.80310" pt_clust_4="436.48205" pt_clust_5="32.66140" pt_clust_6="52.80310"></scales>
<clustering>
<clus scale="   32.661">  3  5 -1 -1</clus>
<clus scale="   52.803">  3  6 -1 -1</clus>
<clus scale="  436.482">  2  4  1 -1</clus>
<clus scale="  461.894">  1  3  2 -1</clus>
</clustering>
</event>
<event>
 6    0  0.1555973E+002  0.1471428E+03  0.7546771E-02  0.1204028E+00
         21   -1    0    0  504  501  0.00000000000E+00  0.00000000000E+00  0.14029851689E+03  0.14029851689E+03  0.00000000000E+00 0.  1.
         21   -1    0    0  506  502 -0.00000000000E+00 -0.00000000000E+00 -0.13712822163E+04  0.13712822163E+04  0.00000000000E+00 0. -1.
         21    1    1    2  503  502  0.45128062565E+02  0.50279647314E+02 -0.96159063526E+03  0.96396116871E+03  0.00000000000E+00 0. -1.
         21    1    1    2  504  503 -0.17532626402E+03  0.16729808289E+02  0.49916401023E+02  0.18305964173E+03  0.00000000000E+00 0.  1.
         21    1    1    2  505  501  0.73091738452E+02 -0.72876871333E+02 -0.12584971712E+03  0.16276237865E+03  0.00000000000E+00 0. -1.
         21    1    1    2  506  505  0.57106462999E+02  0.58674157307E+01 -0.19345974811E+03  0.20179754414E+03  0.00000000000E+00 0. -1.
<scales pt_clust_3="107.21198" pt_clust_4="14000.00000" pt_clust_5="147.14283" pt_clust_6="57.40710"></scales>
<clustering>
<clus scale="   57.407">  2  6  1 -1</clus>
<clus scale="  107.212">  2  3  1 -1</clus>
<clus scale="  147.143">  2  5  1 -1</clus>
<clus scale="  147.143">  1  3  2 -1</clus>
</clustering>
</event>
<event>
 6    0  0.1555973E+002  0.2126825E+03  0.7546771E-02  0.1139459E+00
         21   -1    0    0  505  501  0.00000000000E+00  0.00000000000E+00  0.13629277377E+04  0.13629277377E+04  0.00000000000E+00 0. -1.
         21   -1    0    0  504  502 -0.00000000000E+00 -0.00000000000E+00 -0.86017256988E+03  0.86017256988E+03  0.00000000000E+00 0.  1.
         21    1    1    2  503  502 -0.20348155111E+03  0.62636312906E+02 -0.82371670844E+03  0.85078626288E+03  0.00000000000E+00 0.  1.
         21    1    1    2  504  501  0.16199485009E+03 -0.15651236657E+03  0.67534194400E+03  0.71191656370E+03  0.00000000000E+00 0. -1.
         21    1    1    2  505  506  0.32734350616E+02  0.52590477409E+02  0.27408693376E+03  0.28099989908E+03  0.00000000000E+00 0.  1.
         21    1    1    2  506  503  0.87523504070E+01  0.41285576254E+02  0.37704299848E+03  0.37939758190E+03  0.00000000000E+00 0. -1.
<scales pt_clust_3="212.68250" pt_clust_4="14000.00000" pt_clust_5="110.24810" pt_clust_6="33.22986"></scales>
<clustering>
<clus scale="   33.230">  5  6 -1 -1</clus>
<clus scale="  110.248">  1  5  2 -1</clus>
<clus scale="  212.683">  2  3  1 -1</clus>
<clus scale="  110.248">  1  3  2 -1</clus>
</clustering>
</event>
<event>
 6    0  0.1555973E+002  0.1633551E+03  0.7546771E-02  0.1184960E+00
         21   -1    0    0  504  501  0.00000000000E+00  0.00000000000E+00  0.12221568132E+04  0.12221568132E+04  0.00000000000E+00 0. -1.
         21   -1    0    0  506  502 -0.00000000000E+00 -0.00000000000E+00 -0.34843707912E+03  0.34843707912E+03  0.00000000000E+00 0. -1.
         21    1    1    2  503  501 -0.71517593744E+01  0.89209809408E+02  0.16755970286E+03  0.18996260626E+03  0.00000000000E+00 0. -1.
         21    1    1    2  504  502 -0.50376665928E+02 -0.15484403458E+03  0.92874616666E+03  0.94291246974E+03  0.00000000000E+00 0. -1.
         21    1    1    2  505  503  0.31222209487E+02  0.49829876675E+02  0.98743742545E+02  0.11492680134E+03  0.00000000000E+00 0. -1.
         21    1    1    2  506  505  0.26306215816E+02  0.15804348495E+02 -0.32132987800E+03  0.32279201495E+03  0.00000000000E+00 0. -1.
<scales pt_clust_3="38.63754" pt_clust_4="156.70442" pt_clust_5="38.63754" pt_clust_6="30.68867"></scales>
<clustering>
<clus scale="   30.689">  2  6  1 -1</clus>
<clus scale="   38.638">  3  5 -1 -1</clus>
<clus scale="  156.704">  1  4  2 -1</clus>
<clus scale="  156.704">  1  3  2 -1</clus>
</clustering>
</event>
<event>
 6    0  0.1555973E+002  0.8467189E+02  0.7546771E-02  0.1316293E+00
         21   -1    0    0  504  501  0.00000000000E+00  0.00000000000E+00  0.13332774443E+04  0.13332774443E+04  0.00000000000E+00 0.  1.
         21   -1    0    0  506  502 -0.00000000000E+00 -0.00000000000E+00 -0.73518772139E+02  0.73518772139E+02  0.00000000000E+00 0. -1.
         21    1    1    2  503  501 -0.57337762807E+02 -0.98304031504E+02  0.34079140507E+03  0.35929108453E+03  0.00000000000E+00 0.  1.
         21    1    1    2  504  505  0.40287138059E+02  0.91277759245E+01  0.11541563502E+03  0.12258522992E+03  0.00000000000E+00 0.  1.
         21    1    1    2  505  502 -0.36007793494E+02  0.71259102434E+02  0.84903122150E+03  0.85277689694E+03  0.00000000000E+00 0.  1.
         21    1    1    2  506  503  0.53058418241E+02  0.17917153146E+02 -0.45479589431E+02  0.72143005052E+02  0.00000000000E+00 0. -1.
<scales pt_clust_3="14000.00000" pt_clust_4="41.30823" pt_clust_5="84.67189" pt_clust_6="56.45312"></scales>
<clustering>
<clus scale="   41.308">  1  4  2 -1</clus>
<clus scale="   56.453">  2  6  1 -1</clus>
<clus scale="   84.672">  1  5  2 -1</clus>
<clus scale="   41.308">  1  3  2 -1</clus>
</clustering>
</event>
<event>
 6    0  0.1555973E+002  0.1316722E+03  0.7546771E-02  0.1224995E+00
         21   -1    0    0  506  501  0.00000000000E+00  0.00000000000E+00  0.28555136990E+04  0.28555136990E+04  0.00000000000E+00 0.  1.
         21   -1    0    0  503  502 -0.00000000000E+00 -0.00000000000E+00 -0.42319318087E+02  0.42319318087E+02  0.00000000000E+00 0.  1.
         21    1    1    2  503  505  0.65096047358E+02  0.55836613955E+02  0.90304675248E+03  0.90711005947E+03  0.00000000000E+00 0.  1.
         21    1    1    2  504  502  0.13899895329E+02 -0.35431255479E+02 -0.26546220568E+02  0.46403478118E+02  0.00000000000E+00 0.  1.
         21    1    1    2  505  501  0.45761852661E+02 -0.14468750880E+01  0.53816513929E+03  0.54010920909E+03  0.00000000000E+00 0.  1.
         21    1    1    2  506  504 -0.12475779535E+03 -0.18958483388E+02  0.13985287097E+04  0.14042102704E+04  0.00000000000E+00 0.  1.
<scales pt_clust_3="33.51602" pt_clust_4="38.06023" pt_clust_5="33.51602" pt_clust_6="123.42360"></scales>
<clustering>
<clus scale="   33.516">  3  5 -1 -1</clus>
<clus scale="   38.060">  2  4  1 -1</clus>
<clus scale="  123.424">  2  6  1 -1</clus>
<clus scale="  131.672">  1  3  2 -1</clus>
</clustering>
</event>
<event>
 6    0  0.1555973E+002  0.7968888E+02  0.7546771E-02  0.1329937E+00
         21   -1    0    0  504  501  0.00000000000E+00  0.00000000000E+00  0.30187563215E+03  0.30187563215E+03  0.00000000000E+00 0. -1.
         21   -1    0    0  503  502 -0.00000000000E+00 -0.00000000000E+00 -0.89563411347E+02  0.89563411347E+02  0.00000000000E+00 0. -1.
         21    1    1    2  503  505  0.32353153213E+02  0.35600527799E+02  0.14622082303E+02  0.50278518209E+02  0.00000000000E+00 0. -1.
         21    1    1    2  504  502  0.34407480861E+02 -0.79686227946E+01  0.36314995979E+02  0.50657207004E+02  0.00000000000E+00 0.  1.
         21    1    1    2  505  506 -0.80380606340E+02 -0.93220794892E+02  0.82496525199E+01  0.12336618354E+03  0.00000000000E+00 0. -1.
         21    1    1    2  506  501  0.13619972265E+02  0.65588889887E+02  0.15312549000E+03  0.16713713474E+03  0.00000000000E+00 0. -1.
<scales pt_clust_3="50.41971" pt_clust_4="35.31818" pt_clust_5="79.68888" pt_clust_6="14000.00000"></scales>
<clustering>
<clus scale="   35.318">  1  4  2 -1</clus>
<clus scale="   50.420">  2  3  1 -1</clus>
<clus scale="   79.689">  2  5  1 -1</clus>
<clus scale="   35.318">  1  3  2 -1</clus>
</clustering>
</event>
<event>
 6    0  0.2116702E+002  0.8608076E+02  0.7546771E-02  0.1312630E+00
         21   -1    0    0  505  501  0.00000000000E+00  0.00000000000E+00  0.65675281188E+03  0.65675281188E+03  0.00000000000E+00 0. -1.
         21   -1    0    0  504  502 -0.00000000000E+00 -0.00000000000E+00 -0.47841050651E+03  0.47841050651E+03  0.00000000000E+00 0. -1.
         21    1    1    2  503  506  0.63526198368E+02  0.18832945266E+01  0.11481909575E+02  0.64582961568E+02  0.00000000000E+00 0. -1.
         21    1    1    2  504  503  0.85238846351E+02  0.11150596178E+02 -0.43602484181E+03  0.44441833827E+03  0.00000000000E+00 0. -1.
         21    1    1    2  505  502 -0.95210731365E+02 -0.36655469819E+02  0.47018088265E+03  0.48112240567E+03  0.00000000000E+00 0. -1.
         21    1    1    2  506  501 -0.53554313354E+02  0.23621579114E+02  0.13270435495E+03  0.14503961287E+03  0.00000000000E+00 0.  1.
<scales pt_clust_3="59.70297" pt_clust_4="86.08076" pt_clust_5="14000.00000" pt_clust_6="58.53241"></scales>
<clustering>
<clus scale="   58.532">  1  6  2 -1</clus>
<clus scale="   59.703">  1  3  2 -1</clus>
<clus scale="   86.081">  2  4  1 -1</clus>
<clus scale="   58.532">  1  3  2 -1</clus>
</clustering>
</event>
<event>
 6    0  0.1555973E+002  0.1937650E+03  0.7546771E-02  0.1155109E+00
         21   -1    0    0  505  501  0.00000000000E+00  0.00000000000E+00  0.15305008276E+04  0.15305008276E+04  0.00000000000E+00 0.  1.
         21   -1    0    0  506  502 -0.00000000000E+00 -0.00000000000E+00 -0.53184992341E+02  0.53184992341E+02  0.00000000000E+00 0.  1.
         21    1    1    2  503  502  0.63132258266E+02 -0.53090863726E+02  0.31936331763E+03  0.32984428218E+03  0.00000000000E+00 0.  1.
         21    1    1    2  504  501 -0.10222494129E+03  0.12700739028E+03  0.36795343205E+03  0.40245564223E+03  0.00000000000E+00 0. -1.
         21    1    1    2  505  503  0.74287056481E+02 -0.86686133489E+02  0.80351277039E+03  0.81158229693E+03  0.00000000000E+00 0.  1.
         21    1    1    2  506  504 -0.35194373455E+02  0.12769606933E+02 -0.13513684809E+02  0.39803598597E+02  0.00000000000E+00 0.  1.
<scales pt_clust_3="49.78607" pt_clust_4="184.28955" pt_clust_5="49.78607" pt_clust_6="37.43937"></scales>
<clustering>
<clus scale="   37.439">  2  6  1 -1</clus>
<clus scale="   49.786">  3  5 -1 -1</clus>
<clus scale="  184.290">  2  4  1 -1</clus>
<clus scale="  193.765">  1  3  2 -1</clus>
</clustering>
</event>
<event>
 6    0  0.1555973E+002  0.8881256E+02  0.7546771E-02  0.1305753E+00
         21   -1    0    0  506  501  0.00000000000E+00  0.00000000000E+00  0.99886213556E+02  0.99886213556E+02  0.00000000000E+00 0.  1.
         21   -1    0    0  504  502 -0.00000000000E+00 -0.00000000000E+00 -0.71361746561E+03  0.71361746561E+03  0.00000000000E+00 0.  1.
         21    1    1    2  503  501 -0.10215634277E+02  0.65579190550E+02 -0.14810081720E+01  0.66386616137E+02  0.00000000000E+00 0.  1.
         21    1    1    2  504  503 -0.55154243349E+02 -0.14063905243E+03 -0.69071762159E+02  0.16610912665E+03  0.00000000000E+00 0.  1.
         21    1    1    2  505  502  0.18414686412E+02  0.82531387674E+02 -0.52226393429E+03  0.52906535294E+03  0.00000000000E+00 0.  1.
         21    1    1    2  506  505  0.46955191213E+02 -0.74715257912E+01 -0.20914547433E+02  0.51942583434E+02  0.00000000000E+00 0.  1.
<scales pt_clust_3="63.19421" pt_clust_4="14000.00000" pt_clust_5="88.81256" pt_clust_6="47.54591"></scales>
<clustering>
<clus scale="   47.546">  1  6  2 -1</clus>
<clus scale="   63.194">  1  3  2 -1</clus>
<clus scale="   88.813">  2  5  1 -1</clus>
<clus scale="   47.546">  1  3  2 -1</clus>
</clustering>
</event>
<event>
 6    0  0.1555973E+002  0.3421537E+03  0.7546771E-02  0.1065882E+00
         21   -1    0    0  503  501  0.00000000000E+00  0.00000000000E+00  0.17342836984E+04  0.17342836984E+04  0.00000000000E+00 0.  1.
         21   -1    0    0  506  502 -0.00000000000E+00 -0.00000000000E+00 -0.17391951077E+03  0.17391951077E+03  0.00000000000E+00 0.  1.
         21    1    1    2  503  502  0.21476474558E+01 -0.60955871515E+02  0.15919757006E+03  0.17048195498E+03  0.00000000000E+00 0.  1.
         21    1    1    2  504  505  0.28451530950E+03 -0.23540318824E+02  0.41357508771E+03  0.50254100442E+03  0.00000000000E+00 0.  1.
         21    1    1    2  505  501  0.72771162309E+02 -0.53912115804E+02  0.80296121746E+03  0.80805251998E+03  0.00000000000E+00 0.  1.
         21    1    1    2  506  504 -0.35943411926E+03  0.13840830614E+03  0.18463031241E+03  0.42712772979E+03  0.00000000000E+00 0.  1.
<scales pt_clust_3="60.99369" pt_clust_4="14000.00000" pt_clust_5="112.76465" pt_clust_6="342.15374"></scales>
<clustering>
<clus scale="   60.994">  1  3  2 -1</clus>
<clus scale="  112.765">  1  5  2 -1</clus>
<clus scale="  342.154">  2  6  1 -1</clus>
<clus scale="   60.994">  1  3  2 -1</clus>
</clustering>
</event>
<event>
 6    0  0.1555973E+002  0.1125378E+03  0.7546771E-02  0.1255941E+00
         21   -1    0    0  506  501  0.00000000000E+00  0.00000000000E+00  0.18423611527E+04  0.18423611527E+04  0.00000000000E+00 0. -1.
         21   -1    0    0  505  502 -0.00000000000E+00 -0.00000000000E+00 -0.72705800008E+02  0.72705800008E+02  0.00000000000E+00 0.  1.
         21    1    1    2  503  504 -0.11745194561E+02  0.92723640331E+02  0.62993672241E+03  0.63683270748E+03  0.00000000000E+00 0.  1.
         21    1    1    2  504  501  0.35960002267E+02  0.16929665389E+02  0.87707805911E+03  0.87797816437E+03  0.00000000000E+00 0. -1.
         21    1    1    2  505  503 -0.60245312581E+02 -0.13754659857E+03  0.30377964599E+03  0.33886669618E+03  0.00000000000E+00 0.  1.
         21    1    1    2  506  502  0.36030504875E+02  0.27893292849E+02 -0.41139074851E+02  0.61389384645E+02  0.00000000000E+00 0.  1.
<scales pt_clust_3="14000.00000" pt_clust_4="39.74588" pt_clust_5="112.53778" pt_clust_6="45.97295"></scales>
<clustering>
<clus scale="   39.746">  1  4  2 -1</clus>
<clus scale="   45.973">  2  6  1 -1</clus>
<clus scale="  112.538">  2  5  1 -1</clus>
<clus scale="   39.746">  1  3  2 -1</clus>
</clustering>
</event>
<event>
 6    0  0.1555973E+002  0.1248796E+03  0.7546771E-02  0.1235258E+00
         21   -1    0    0  504  501  0.00000000000E+00  0.00000000000E+00  0.16831564730E+03  0.16831564730E+03  0.00000000000E+00 0.  1.
         21   -1    0    0  503  502 -0.00000000000E+00 -0.00000000000E+00 -0.20897072222E+04  0.20897072222E+04  0.00000000000E+00 0. -1.
         21    1    1    2  503  501 -0.18185817408E+03 -0.21687327580E+02 -0.92951710527E+02  0.20538441067E+03  0.00000000000E+00 0.  1.
         21    1    1    2  504  505  0.52022237869E+02  0.53209909485E+02  0.27305290952E+02  0.79266554197E+02  0.00000000000E+00 0.  1.
         21    1    1    2  505  506  0.79488456664E+02 -0.31947928995E+02  0.27100802500E+02  0.89852870883E+02  0.00000000000E+00 0.  1.
         21    1    1    2  506  502  0.50347479545E+02  0.42534709035E+00 -0.18828459578E+04  0.18835190337E+04  0.00000000000E+00 0. -1.
<scales pt_clust_3="14000.00000" pt_clust_4="79.00888" pt_clust_5="124.87956" pt_clust_6="50.34928"></scales>
<clustering>
<clus scale="   50.349">  2  6  1 -1</clus>
<clus scale="   79.009">  1  4  2 -1</clus>
<clus scale="  124.880">  1  5  2 -1</clus>
<clus scale="   79.009">  1  3  2 -1</clus>
</clustering>
</event>
<event>
 6    0  0.1555973E+002  0.1743943E+03  0.7546771E-02  0.1173341E+00
         21   -1    0    0  505  501  0.00000000000E+00  0.00000000000E+00  0.11075348311E+03  0.11075348311E+03  0.00000000000E+00 0.  1.
         21   -1    0    0  506  502 -0.00000000000E+00 -0.00000000000E+00 -0.24786766287E+04  0.24786766287E+04  0.00000000000E+00 0. -1.
         21    1    1    2  503  501  0.48374857818E+02  0.88873571466E+01 -0.29114055072E+02  0.57155403845E+02  0.00000000000E+00 0.  1.
         21    1    1    2  504  502 -0.41564333195E+02 -0.17207877279E+03 -0.23433189149E+04  0.23499962201E+04  0.00000000000E+00 0. -1.
         21    1    1    2  505  504 -0.28648322501E+02  0.12145316346E+03  0.30526058088E+02  0.12846570562E+03  0.00000000000E+00 0.  1.
         21    1    1    2  506  503  0.21837797878E+02  0.41738252184E+02 -0.26016233741E+02  0.53812782214E+02  0.00000000000E+00 0.  1.
<scales pt_clust_3="96.30467" pt_clust_4="174.39432" pt_clust_5="14000.00000" pt_clust_6="41.31006"></scales>
<clustering>
<clus scale="   41.310">  3  6 -1 -1</clus>
<clus scale="   96.305">  1  3  2 -1</clus>
<clus scale="  174.394">  2  4  1 -1</clus>
<clus scale="   96.305">  1  3  2 -1</clus>
</clustering>
</event>
<event>
 6    0  0.1555973E+002  0.8317119E+02  0.7546771E-02  0.1320286E+00
         21   -1    0    0  504  501  0.00000000000E+00  0.00000000000E+00  0.18748963980E+03  0.18748963980E+03  0.00000000000E+00 0. -1.
         21   -1    0    0  505  502 -0.00000000000E+00 -0.00000000000E+00 -0.24082325818E+03  0.24082325818E+03  0.00000000000E+00 0. -1.
         21    1    1    2  503  502  0.51265445451E+02 -0.47567410145E+02  0.71172251983E+02  0.99781229986E+02  0.00000000000E+00 0. -1.
         21    1    1    2  504  503  0.44035424512E+02  0.70776927832E+01  0.40913007812E+01  0.44787845328E+02  0.00000000000E+00 0.  1.
         21    1    1    2  505  506 -0.49890530135E+02 -0.45644903340E+02 -0.16614867985E+03  0.17938201140E+03  0.00000000000E+00 0. -1.
         21    1    1    2  506  501 -0.45410339828E+02  0.86134620702E+02  0.37551508696E+02  0.10436181127E+03  0.00000000000E+00 0. -1.
<scales pt_clust_3="83.17119" pt_clust_4="44.60059" pt_clust_5="66.11559" pt_clust_6="14000.00000"></scales>
<clustering>
<clus scale="   44.601">  1  4  2 -1</clus>
<clus scale="   66.116">  2  5  1 -1</clus>
<clus scale="   83.171">  1  3  2 -1</clus>
<clus scale="   44.601">  1  3  2 -1</clus>
</clustering>
</event>
<event>
 6    0  0.1555973E+002  0.1138022E+03  0.7546771E-02  0.1253686E+00
         21   -1    0    0  505  501  0.00000000000E+00  0.00000000000E+00  0.88328109959E+03  0.88328109959E+03  0.00000000000E+00 0.  1.
         21   -1    0    0  504  502 -0.00000000000E+00 -0.00000000000E+00 -0.10084304752E+03  0.10084304752E+03  0.00000000000E+00 0.  1.
         21    1    1    2  503  506  0.56613430827E+02 -0.16285522822E+02  0.54669997105E+03  0.54986467167E+03  0.00000000000E+00 0.  1.
         21    1    1    2  504  503 -0.12232077659E+03 -0.19147255611E+02 -0.46326595252E+02  0.13219358233E+03  0.00000000000E+00 0.  1.
         21    1    1    2  505  502  0.16637719038E+02  0.27664666947E+02  0.26641134344E+02  0.41855675018E+02  0.00000000000E+00 0.  1.
         21    1    1    2  506  501  0.49069626722E+02  0.77681114859E+01  0.25542354193E+03  0.26021021808E+03  0.00000000000E+00 0.  1.
<scales pt_clust_3="36.62893" pt_clust_4="106.64525" pt_clust_5="32.28231" pt_clust_6="36.62893"></scales>
<clustering>
<clus scale="   32.282">  2  5  1 -1</clus>
<clus scale="   36.629">  3  6 -1 -1</clus>
<clus scale="  106.645">  2  4  1 -1</clus>
<clus scale="  113.802">  1  3  2 -1</clus>
</clustering>
</event>
<event>
 6    0  0.1555973E+002  0.1576760E+03  0.7546771E-02  0.1191346E+00
         21   -1    0    0  503  501  0.00000000000E+00  0.00000000000E+00  0.36751016605E+04  0.36751016605E+04  0.00000000000E+00 0. -1.
         21   -1    0    0  505  502 -0.00000000000E+00 -0.00000000000E+00 -0.23284769787E+02  0.23284769787E+02  0.00000000000E+00 0.  1.
         21    1    1    2  503  506 -0.38789117611E+02  0.44093903986E+02  0.62525940987E+03  0.62801130375E+03  0.00000000000E+00 0. -1.
         21    1    1    2  504  501 -0.64823451049E+02 -0.23194268456E+02  0.12343073819E+04  0.12362260177E+04  0.00000000000E+00 0. -1.
         21    1    1    2  505  504  0.28532601712E+02 -0.16239113903E+03  0.39903980428E+03  0.43176122660E+03  0.00000000000E+00 0.  1.
         21    1    1    2  506  502  0.75079966947E+02  0.14149150350E+03  0.13932102947E+04  0.14023878822E+04  0.00000000000E+00 0. -1.
<scales pt_clust_3="58.72706" pt_clust_4="80.71713" pt_clust_5="157.67600" pt_clust_6="14000.00000"></scales>
<clustering>
<clus scale="   58.727">  1  3  2 -1</clus>
<clus scale="   80.717">  1  4  2 -1</clus>
<clus scale="  157.676">  2  5  1 -1</clus>
<clus scale="   58.727">  1  3  2 -1</clus>
</clustering>
</event>
<event>
 6    0  0.1555973E+002  0.8236372E+02  0.7546771E-02  0.1322474E+00
         21   -1    0    0  505  501  0.00000000000E+00  0.00000000000E+00  0.20833822364E+03  0.20833822364E+03  0.00000000000E+00 0.  1.
         21   -1    0    0  504  502 -0.00000000000E+00 -0.00000000000E+00 -0.14633326768E+04  0.14633326768E+04  0.00000000000E+00 0. -1.
         21    1    1    2  503  506  0.90446397789E+02  0.37277347117E+02  0.22286288115E+02  0.10033359417E+03  0.00000000000E+00 0.  1.
         21    1    1    2  504  503 -0.40930586557E+02 -0.40064244747E+02 -0.13590501346E+04  0.13602564924E+04  0.00000000000E+00 0. -1.
         21    1    1    2  505  502 -0.84497411528E+02 -0.31922134816E+02  0.11894320702E+03  0.14935301049E+03  0.00000000000E+00 0.  1.
         21    1    1    2  506  501  0.34981600296E+02  0.34709032447E+02 -0.37173813701E+02  0.61727803442E+02  0.00000000000E+00 0.  1.
<scales pt_clust_3="14000.00000" pt_clust_4="57.12367" pt_clust_5="82.36372" pt_clust_6="49.27910"></scales>
<clustering>
<clus scale="   49.279">  1  6  2 -1</clus>
<clus scale="   57.124">  2  4  1 -1</clus>
<clus scale="   82.364">  1  5  2 -1</clus>
<clus scale="   49.279">  1  3  2 -1</clus>
</clustering>
</event>
<event>
 6    0  0.1555973E+002  0.7561944E+02  0.7546771E-02  0.1341963E+00
         21   -1    0    0  503  501  0.00000000000E+00  0.00000000000E+00  0.16910506078E+02  0.16910506078E+02  0.00000000000E+00 0.  1.
         21   -1    0    0  506  502 -0.00000000000E+00 -0.00000000000E+00 -0.18069309918E+04  0.18069309918E+04  0.00000000000E+00 0.  1.
         21    1    1    2  503  502 -0.28664710340E+02 -0.75838169586E+02 -0.10375341443E+04  0.10406969752E+04  0.00000000000E+00 0.  1.
         21    1    1    2  504  501  0.23998661664E+02 -0.47841878408E+02 -0.85074458494E+02  0.10051091771E+03  0.00000000000E+00 0.  1.
         21    1    1    2  505  504 -0.23379408553E+02  0.10597014033E+03 -0.46294322113E+03  0.47549205395E+03  0.00000000000E+00 0.  1.
         21    1    1    2  506  505  0.28045457229E+02  0.17709907668E+02 -0.20446866179E+03  0.20714155101E+03  0.00000000000E+00 0. -1.
<scales pt_clust_3="14000.00000" pt_clust_4="53.36930" pt_clust_5="75.61944" pt_clust_6="33.16909"></scales>
<clustering>
<clus scale="   33.169">  2  6  1 -1</clus>
<clus scale="   53.369">  1  4  2 -1</clus>
<clus scale="   75.619">  1  5  2 -1</clus>
<clus scale="   53.369">  1  3  2 -1</clus>
</clustering>
</event>
<event>
 6    0  0.1555973E+002  0.7901924E+02  0.7546771E-02  0.1331858E+00
         21   -1    0    0  504  501  0.00000000000E+00  0.00000000000E+00  0.11099082323E+04  0.11099082323E+04  0.00000000000E+00 0.  1.
         21   -1    0    0  503  502 -0.00000000000E+00 -0.00000000000E+00 -0.44168475556E+03  0.44168475556E+03  0.00000000000E+00 0. -1.
         21    1    1    2  503  506 -0.14230972997E+02 -0.33620510432E+02 -0.41419087735E+03  0.41579675588E+03  0.00000000000E+00 0. -1.
         21    1    1    2  504  505  0.10526264969E+03  0.56241420779E+02  0.22448581554E+03  0.25423847901E+03  0.00000000000E+00 0.  1.
         21    1    1    2  505  502 -0.44415526316E+02 -0.29317615400E+02  0.52509495064E+02  0.74763016408E+02  0.00000000000E+00 0.  1.
         21    1    1    2  506  501 -0.46616150381E+02  0.66967050520E+01  0.80541904344E+03  0.80679473652E+03  0.00000000000E+00 0.  1.
<scales pt_clust_3="36.50835" pt_clust_4="14000.00000" pt_clust_5="79.01924" pt_clust_6="47.34326"></scales>
<clustering>
<clus scale="   36.508">  2  3  1 -1</clus>
<clus scale="   47.343">  1  6  2 -1</clus>
<clus scale="   79.019">  2  5  1 -1</clus>
<clus scale="   47.343">  1  3  2 -1</clus>
</clustering>
</event>
<event>
 6    0  0.1555973E+002  0.1781656E+03  0.7546771E-02  0.1169590E+00
         21   -1    0    0  505  501  0.00000000000E+00  0.00000000000E+00  0.38006987067E+03  0.38006987067E+03  0.00000000000E+00 0.  1.
         21   -1    0    0  501  502 -0.00000000000E+00 -0.00000000000E+00 -0.15841543023E+04  0.15841543023E+04  0.00000000000E+00 0. -1.
         21    1    1    2  503  502  0.62371397508E+02 -0.16058911828E+03 -0.15441233755E+04  0.15537039792E+04  0.00000000000E+00 0. -1.
         21    1    1    2  504  506 -0.40124637089E+02  0.50917520933E+02  0.20052222054E+03  0.21074093425E+03  0.00000000000E+00 0.  1.
         21    1    1    2  505  504  0.15959852838E+02  0.33373257686E+02  0.90005850531E+00  0.37004071891E+02  0.00000000000E+00 0.  1.
         21    1    1    2  506  503 -0.38206613257E+02  0.76298339666E+02  0.13861666485E+03  0.16277518762E+03  0.00000000000E+00 0.  1.
<scales pt_clust_3="171.94045" pt_clust_4="41.76554" pt_clust_5="36.99312" pt_clust_6="41.76554"></scales>
<clustering>
<clus scale="   36.993">  1  5  2 -1</clus>
<clus scale="   41.766">  4  6 -1 -1</clus>
<clus scale="  171.940">  2  3  1 -1</clus>
<clus scale="   36.993">  1  3  2 -1</clus>
</clustering>
</event>
<event>
 6    0  0.1555973E+002  0.1253882E+03  0.7546771E-02  0.1234464E+00
         21   -1    0    0  506  501  0.00000000000E+00  0.00000000000E+00  0.91094748794E+02  0.91094748794E+02  0.00000000000E+00 0.  1.
         21   -1    0    0  503  502 -0.00000000000E+00 -0.00000000000E+00 -0.79508588756E+03  0.79508588756E+03  0.00000000000E+00 0.  1.
         21    1    1    2  503  505 -0.46387153156E+02  0.33075832454E+02 -0.50611795132E+03  0.50931440125E+03  0.00000000000E+00 0.  1.
         21    1    1    2  504  501  0.45110771781E+02 -0.11812198434E+03  0.34191673126E+01  0.12648903360E+03  0.00000000000E+00 0.  1.
         21    1    1    2  505  504 -0.32131877739E+02  0.88788085426E+02 -0.19431742351E+03  0.21604407596E+03  0.00000000000E+00 0.  1.
         21    1    1    2  506  502  0.33408259114E+02 -0.37419335366E+01 -0.69749312518E+01  0.34333125543E+02  0.00000000000E+00 0.  1.
<scales pt_clust_3="56.36633" pt_clust_4="125.38823" pt_clust_5="14000.00000" pt_clust_6="33.61717"></scales>
<clustering>
<clus scale="   33.617">  1  6  2 -1</clus>
<clus scale="   56.366">  2  3  1 -1</clus>
<clus scale="  125.388">  1  4  2 -1</clus>
<clus scale="   33.617">  1  3  2 -1</clus>
</clustering>
</event>
<event>
 6    0  0.1555973E+002  0.1479927E+03  0.7546771E-02  0.1202962E+00
         21   -1    0    0  503  501  0.00000000000E+00  0.00000000000E+00  0.55345348695E+03  0.55345348695E+03  0.00000000000E+00 0.  1.
         21   -1    0    0  506  502 -0.00000000000E+00 -0.00000000000E+00 -0.31701927065E+03  0.31701927065E+03  0.00000000000E+00 0.  1.
         21    1    1    2  503  504  0.54986897435E+02 -0.14535510555E+02  0.12188453444E+03  0.13450159736E+03  0.00000000000E+00 0.  1.
         21    1    1    2  504  502 -0.13047045492E+02  0.33603022920E+02 -0.21421896638E+03  0.21723064725E+03  0.00000000000E+00 0.  1.
         21    1    1    2  505  501 -0.25629699271E+01 -0.13605520787E+03  0.36545450284E+03  0.38996741152E+03  0.00000000000E+00 0.  1.
         21    1    1    2  506  505 -0.39376882015E+02  0.11698769551E+03 -0.36685854595E+02  0.12877310148E+03  0.00000000000E+00 0. -1.
<scales pt_clust_3="55.58490" pt_clust_4="36.04703" pt_clust_5="147.99267" pt_clust_6="14000.00000"></scales>
<clustering>
<clus scale="   36.047">  2  4  1 -1</clus>
<clus scale="   55.585">  1  3  2 -1</clus>
<clus scale="  147.993">  1  5  2 -1</clus>
<clus scale="   55.585">  1  3  2 -1</clus>
</clustering>
</event>
<event>
 6    0  0.1555973E+002  0.4555998E+03  0.7546771E-02  0.1026065E+00
         21   -1    0    0  506  501  0.00000000000E+00  0.00000000000E+00  0.13373641995E+04  0.13373641995E+04  0.00000000000E+00 0.  1.
         21   -1    0    0  503  502 -0.00000000000E+00 -0.00000000000E+00 -0.79328580595E+03  0.79328580595E+03  0.00000000000E+00 0.  1.
         21    1    1    2  503  504 -0.10527498849E+02 -0.39559736433E+02 -0.46588565514E+03  0.46768070801E+03  0.00000000000E+00 0.  1.
         21    1    1    2  504  505  0.38716359515E+03  0.13422631724E+03 -0.51853353565E+02  0.41303888912E+03  0.00000000000E+00 0.  1.
         21    1    1    2  505  501  0.38602385141E+02  0.49234478822E+02 -0.32619602501E+02  0.70556477454E+02  0.00000000000E+00 0.  1.
         21    1    1    2  506  502 -0.41523848145E+03 -0.14390105963E+03  0.10944370048E+04  0.11793739309E+04  0.00000000000E+00 0.  1.
<scales pt_clust_3="40.93655" pt_clust_4="41.17864" pt_clust_5="41.17864" pt_clust_6="442.46690"></scales>
<clustering>
<clus scale="   40.937">  2  3  1 -1</clus>
<clus scale="   41.179">  4  5 -1 -1</clus>
<clus scale="  442.467">  1  6  2 -1</clus>
<clus scale="  442.467">  1  3  2 -1</clus>
</clustering>
</event>
<event>
 6    0  0.1555973E+002  0.1266469E+03  0.7546771E-02  0.1232518E+00
         21   -1    0    0  505  501  0.00000000000E+00  0.00000000000E+00  0.27944641578E+03  0.27944641578E+03  0.00000000000E+00 0.  1.
         21   -1    0    0  503  502 -0.00000000000E+00 -0.00000000000E+00 -0.41610744201E+03  0.41610744201E+03  0.00000000000E+00 0. -1.
         21    1    1    2  503  501 -0.34008939217E+02  0.30075155965E+02  0.95168738942E+01  0.46386354046E+02  0.00000000000E+00 0.  1.
         21    1    1    2  504  506  0.13593379395E+02  0.71115480800E+02  0.43990918333E+02  0.84719492849E+02  0.00000000000E+00 0.  1.
         21    1    1    2  505  504  0.79735066743E+02  0.23407107959E+02  0.16426979136E+03  0.18409274273E+03  0.00000000000E+00 0.  1.
         21    1    1    2  506  502 -0.59319506922E+02 -0.12459774472E+03 -0.35443860982E+03  0.38035526816E+03  0.00000000000E+00 0. -1.
<scales pt_clust_3="45.39959" pt_clust_4="14000.00000" pt_clust_5="71.50658" pt_clust_6="126.64692"></scales>
<clustering>
<clus scale="   45.400">  1  3  2 -1</clus>
<clus scale="   71.507">  1  5  2 -1</clus>
<clus scale="  126.647">  2  6  1 -1</clus>
<clus scale="   45.400">  1  3  2 -1</clus>
</clustering>
</event>
<event>
 6    0  0.1555973E+002  0.7402514E+02  0.7546771E-02  0.1346917E+00
         21   -1    0    0  503  501  0.00000000000E+00  0.00000000000E+00  0.32947769947E+03  0.32947769947E+03  0.00000000000E+00 0. -1.
         21   -1    0    0  506  502 -0.00000000000E+00 -0.00000000000E+00 -0.13251696760E+03  0.13251696760E+03  0.00000000000E+00 0.  1.
         21    1    1    2  503  502 -0.92890624912E+02 -0.70984464163E+02  0.20665592939E+03  0.23743238090E+03  0.00000000000E+00 0. -1.
         21    1    1    2  504  505 -0.14805284350E+01  0.81019118168E+02 -0.59913574805E+02  0.10077661395E+03  0.00000000000E+00 0.  1.
         21    1    1    2  505  501  0.47587945311E+02  0.21807841336E+02  0.40903394244E+02  0.66432538288E+02  0.00000000000E+00 0.  1.
         21    1    1    2  506  504  0.46783208035E+02 -0.31842495341E+02  0.93149830444E+01  0.57353133940E+02  0.00000000000E+00 0.  1.
<scales pt_clust_3="74.02514" pt_clust_4="14000.00000" pt_clust_5="52.34687" pt_clust_6="60.10762"></scales>
<clustering>
<clus scale="   52.347">  1  5  2 -1</clus>
<clus scale="   60.108">  2  6  1 -1</clus>
<clus scale="   74.025">  1  3  2 -1</clus>
<clus scale="   52.347">  1  3  2 -1</clus>
</clustering>
</event>
<event>
 6    0  0.1555973E+002  0.1755991E+03  0.7546771E-02  0.1172132E+00
         21   -1    0    0  505  501  0.00000000000E+00  0.00000000000E+00  0.80219821769E+03  0.80219821769E+03  0.00000000000E+00 0. -1.
         21   -1    0    0  503  502 -0.00000000000E+00 -0.00000000000E+00 -0.17802743219E+03  0.17802743219E+03  0.00000000000E+00 0. -1.
         21    1    1    2  503  504  0.76674708372E+02 -0.29369555832E+02 -0.97856837344E+02  0.12774013593E+03  0.00000000000E+00 0. -1.
         21    1    1    2  504  506  0.13091156628E+03 -0.98872041153E+01  0.22477965118E+03  0.26031036586E+03  0.00000000000E+00 0. -1.
         21    1    1    2  505  502 -0.21802214682E+03  0.11066643092E+03  0.42335792222E+03  0.48888919577E+03  0.00000000000E+00 0. -1.
         21    1    1    2  506  501  0.10435872169E+02 -0.71409670975E+02  0.73890049449E+02  0.10328595231E+03  0.00000000000E+00 0.  1.
<scales pt_clust_3="82.85650" pt_clust_4="14000.00000" pt_clust_5="175.59909" pt_clust_6="72.16820"></scales>
<clustering>
<clus scale="   72.168">  1  6  2 -1</clus>
<clus scale="   82.856">  2  3  1 -1</clus>
<clus scale="  175.599">  2  5  1 -1</clus>
<clus scale="   72.168">  1  3  2 -1</clus>
</clustering>
</event>
<event>
 6    0  0.1555973E+002  0.2279288E+03  0.7546771E-02  0.1128106E+00
         21   -1    0    0  506  501  0.00000000000E+00  0.00000000000E+00  0.61386509144E+03  0.61386509144E+03  0.00000000000E+00 0. -1.
         21   -1    0    0  503  502 -0.00000000000E+00 -0.00000000000E+00 -0.79911741138E+03  0.79911741138E+03  0.00000000000E+00 0. -1.
         21    1    1    2  503  501 -0.52327156054E+02  0.20983938623E+02  0.46755616231E+02  0.73243051479E+02  0.00000000000E+00 0. -1.
         21    1    1    2  504  502 -0.18339284442E+03  0.12515381713E+03 -0.73274540590E+03  0.76564498509E+03  0.00000000000E+00 0. -1.
         21    1    1    2  505  504  0.13996286462E+03 -0.10745655509E+03  0.29124732744E+03  0.34053123271E+03  0.00000000000E+00 0. -1.
         21    1    1    2  506  505  0.95757135852E+02 -0.38681200665E+02  0.20949014229E+03  0.23356323355E+03  0.00000000000E+00 0. -1.
<scales pt_clust_3="56.37781" pt_clust_4="223.66323" pt_clust_5="33.57679" pt_clust_6="33.57679"></scales>
<clustering>
<clus scale="   33.577">  5  6 -1 -1</clus>
<clus scale="   56.378">  1  3  2 -1</clus>
<clus scale="  223.663">  2  4  1 -1</clus>
<clus scale="   56.378">  1  3  2 -1</clus>
</clustering>
</event>
<event>
 6    0  0.1555973E+002  0.1072948E+03  0.7546771E-02  0.1265663E+00
         21   -1    0    0  505  501  0.00000000000E+00  0.00000000000E+00  0.12005955046E+04  0.12005955046E+04  0.00000000000E+00 0.  1.
         21   -1    0    0  506  502 -0.00000000000E+00 -0.00000000000E+00 -0.20999889454E+02  0.20999889454E+02  0.00000000000E+00 0.  1.
         21    1    1    2  503  501 -0.98683267825E+00  0.33360067629E+02  0.19023811067E+03  0.19314348734E+03  0.00000000000E+00 0. -1.
         21    1    1    2  504  502 -0.88146840317E+02  0.17896860295E+02  0.27482009292E+03  0.28916473944E+03  0.00000000000E+00 0.  1.
         21    1    1    2  505  504 -0.29329601009E+02  0.83043211223E+01  0.35104926020E+03  0.35237021772E+03  0.00000000000E+00 0.  1.
         21    1    1    2  506  503  0.11846327400E+03 -0.59561249047E+02  0.36348815137E+03  0.38691694956E+03  0.00000000000E+00 0.  1.
<scales pt_clust_3="36.04770" pt_clust_4="107.29481" pt_clust_5="30.48257" pt_clust_6="14000.00000"></scales>
<clustering>
<clus scale="   30.483">  1  5  2 -1</clus>
<clus scale="   36.048">  1  3  2 -1</clus>
<clus scale="  107.295">  2  4  1 -1</clus>
<clus scale="   30.483">  1  3  2 -1</clus>
</clustering>
</event>
<event>
 6    0  0.1555973E+002  0.1186095E+03  0.7546771E-02  0.1245409E+00
         21   -1    0    0  505  501  0.00000000000E+00  0.00000000000E+00  0.28717420837E+03  0.28717420837E+03  0.00000000000E+00 0. -1.
         21   -1    0    0  506  502 -0.00000000000E+00 -0.00000000000E+00 -0.61775196785E+03  0.61775196785E+03  0.00000000000E+00 0. -1.
         21    1    1    2  503  502 -0.43096737359E+02  0.13347699815E+02 -0.33130804896E+03  0.33436583732E+03  0.00000000000E+00 0. -1.
         21    1    1    2  504  501  0.66387447916E+02  0.75438258777E+02  0.24892824169E+03  0.26844644464E+03  0.00000000000E+00 0. -1.
         21    1    1    2  505  503  0.39876836859E+02 -0.11934059244E+02 -0.83497734229E+01  0.42453534648E+02  0.00000000000E+00 0.  1.
         21    1    1    2  506  504 -0.63167547416E+02 -0.76851899348E+02 -0.23984817879E+03  0.25966035961E+03  0.00000000000E+00 0. -1.
<scales pt_clust_3="44.88082" pt_clust_4="118.60948" pt_clust_5="41.62432" pt_clust_6="14000.00000"></scales>
<clustering>
<clus scale="   41.624">  1  5  2 -1</clus>
<clus scale="   44.881">  2  3  1 -1</clus>
<clus scale="  118.609">  1  4  2 -1</clus>
<clus scale="   41.624">  1  3  2 -1</clus>
</clustering>
</event>
<event>
 6    0  0.1555973E+002  0.1303712E+03  0.7546771E-02  0.1226906E+00
         21   -1    0    0  503  501  0.00000000000E+00  0.00000000000E+00  0.27073512983E+03  0.27073512983E+03  0.00000000000E+00 0. -1.
         21   -1    0    0  505  502 -0.00000000000E+00 -0.00000000000E+00 -0.16589439052E+03  0.16589439052E+03  0.00000000000E+00 0. -1.
         21    1    1    2  503  506 -0.14594929087E+02 -0.38014471525E+02  0.58656466715E+02  0.71405133484E+02  0.00000000000E+00 0. -1.
         21    1    1    2  504  501  0.12391715209E+03  0.73462805070E+02  0.80884603192E+02  0.16521066353E+03  0.00000000000E+00 0. -1.
         21    1    1    2  505  504 -0.12947795361E+03 -0.85857564066E+01 -0.73151739267E+02  0.14896117830E+03  0.00000000000E+00 0. -1.
         21    1    1    2  506  502  0.20155730608E+02 -0.26862577138E+02  0.38451408663E+02  0.51052545040E+02  0.00000000000E+00 0.  1.
<scales pt_clust_3="74.60525" pt_clust_4="130.37118" pt_clust_5="14000.00000" pt_clust_6="33.06965"></scales>
<clustering>
<clus scale="   33.070">  3  6 -1 -1</clus>
<clus scale="   74.605">  1  3  2 -1</clus>
<clus scale="  130.371">  1  4  2 -1</clus>
<clus scale="   74.605">  1  3  2 -1</clus>
</clustering>
</event>
<event>
 6    0  0.1555973E+002  0.1708007E+03  0.7546771E-02  0.1177015E+00
         21   -1    0    0  505  501  0.00000000000E+00  0.00000000000E+00  0.73121057855E+03  0.73121057855E+03  0.00000000000E+00 0. -1.
         21   -1    0    0  503  502 -0.00000000000E+00 -0.00000000000E+00 -0.41887930706E+03  0.41887930706E+03  0.00000000000E+00 0. -1.
         21    1    1    2  503  501 -0.30683906624E+01  0.72424121123E+02  0.13838825575E+03  0.15622412641E+03  0.00000000000E+00 0.  1.
         21    1    1    2  504  502  0.43086766991E+01 -0.16516551193E+03 -0.38819039271E+03  0.42188860143E+03  0.00000000000E+00 0. -1.
         21    1    1    2  505  506  0.23917145102E+02  0.51912614715E+02  0.33431381641E+03  0.33916467570E+03  0.00000000000E+00 0. -1.
         21    1    1    2  506  504 -0.25157431139E+02  0.40828776091E+02  0.22781959203E+03  0.23281248208E+03  0.00000000000E+00 0. -1.
<scales pt_clust_3="72.48909" pt_clust_4="163.13024" pt_clust_5="46.35849" pt_clust_6="46.35849"></scales>
<clustering>
<clus scale="   46.358">  5  6 -1 -1</clus>
<clus scale="   72.489">  1  3  2 -1</clus>
<clus scale="  163.130">  2  4  1 -1</clus>
<clus scale="   72.489">  1  3  2 -1</clus>
</clustering>
</event>
<event>
 6    0  0.1555973E+002  0.1584644E+03  0.7546771E-02  0.1190441E+00
         21   -1    0    0  503  501  0.00000000000E+00  0.00000000000E+00  0.14355151842E+03  0.14355151842E+03  0.00000000000E+00 0. -1.
         21   -1    0    0  504  502 -0.00000000000E+00 -0.00000000000E+00 -0.27022526574E+04  0.27022526574E+04  0.00000000000E+00 0. -1.
         21    1    1    2  503  506  0.49204773606E+02  0.42057027071E+02  0.19922369610E+02  0.67725948370E+02  0.00000000000E+00 0. -1.
         21    1    1    2  504  501 -0.23308198821E+02  0.47377947700E+02  0.28358020215E+02  0.59934292113E+02  0.00000000000E+00 0. -1.
         21    1    1    2  505  502 -0.11674521385E+03 -0.95329569756E+02 -0.26216077398E+04  0.26259368449E+04  0.00000000000E+00 0. -1.
         21    1    1    2  506  505  0.90848639068E+02  0.58945949850E+01  0.14626211060E+02  0.92207090403E+02  0.00000000000E+00 0. -1.
<scales pt_clust_3="41.91233" pt_clust_4="52.80097" pt_clust_5="150.46695" pt_clust_6="41.91233"></scales>
<clustering>
<clus scale="   41.912">  3  6 -1 -1</clus>
<clus scale="   52.801">  1  4  2 -1</clus>
<clus scale="  150.467">  2  5  1 -1</clus>
<clus scale="   52.801">  1  3  2 -1</clus>
</clustering>
</event>
<event>
 6    0  0.1555973E+002  0.3169794E+03  0.7546771E-02  0.1077048E+00
         21   -1    0    0  505  501  0.00000000000E+00  0.00000000000E+00  0.69550566127E+03  0.69550566127E+03  0.00000000000E+00 0.  1.
         21   -1    0    0  504  502 -0.00000000000E+00 -0.00000000000E+00 -0.28804639769E+03  0.28804639769E+03  0.00000000000E+00 0.  1.
         21    1    1    2  503  502  0.73760614221E+02  0.14864925611E+03  0.17961246768E+03  0.24453602617E+03  0.00000000000E+00 0.  1.
         21    1    1    2  504  501 -0.70134075189E+02 -0.30826172265E+03 -0.12052623887E+03  0.33833511850E+03  0.00000000000E+00 0.  1.
         21    1    1    2  505  506 -0.48592258597E+02  0.27417488797E+02  0.13019165398E+03  0.14164318923E+03  0.00000000000E+00 0.  1.
         21    1    1    2  506  503  0.44965719565E+02  0.13219497775E+03  0.21818138079E+03  0.25903772506E+03  0.00000000000E+00 0.  1.
<scales pt_clust_3="44.72421" pt_clust_4="313.20725" pt_clust_5="55.79360" pt_clust_6="44.72421"></scales>
<clustering>
<clus scale="   44.724">  3  6 -1 -1</clus>
<clus scale="   55.794">  1  5  2 -1</clus>
<clus scale="  313.207">  2  4  1 -1</clus>
<clus scale="   55.794">  1  3  2 -1</clus>
</clustering>
</event>
<event>
 6    0  0.1555973E+002  0.6863250E+02  0.7546771E-02  0.1364806E+00
         21   -1    0    0  504  501  0.00000000000E+00  0.00000000000E+00  0.71347230206E+03  0.71347230206E+03  0.00000000000E+00 0.  1.
         21   -1    0    0  506  502 -0.00000000000E+00 -0.00000000000E+00 -0.16241399126E+03  0.16241399126E+03  0.00000000000E+00 0. -1.
         21    1    1    2  503  501 -0.80332328446E+02  0.18292655573E+02  0.19845062273E+03  0.21487334386E+03  0.00000000000E+00 0.  1.
         21    1    1    2  504  505  0.50897386444E+02 -0.87280651378E+01  0.31433306241E+03  0.31854669546E+03  0.00000000000E+00 0.  1.
         21    1    1    2  505  502  0.76932078259E+02  0.65003819970E+01  0.17799683536E+03  0.19401977484E+03  0.00000000000E+00 0.  1.
         21    1    1    2  506  503 -0.47497136258E+02 -0.16064972432E+02 -0.13972220970E+03  0.14844647916E+03  0.00000000000E+00 0. -1.
<scales pt_clust_3="14000.00000" pt_clust_4="46.65231" pt_clust_5="68.63250" pt_clust_6="50.14042"></scales>
<clustering>
<clus scale="   50.140">  2  6  1 -1</clus>
<clus scale="   46.652">  1  4  2 -1</clus>
<clus scale="   68.633">  2  5  1 -1</clus>
<clus scale="   46.652">  1  3  2 -1</clus>
</clustering>
</event>
<event>
 6    0  0.1555973E+002  0.1421878E+03  0.7546771E-02  0.1210415E+00
         21   -1    0    0  504  501  0.00000000000E+00  0.00000000000E+00  0.93722942312E+03  0.93722942312E+03  0.00000000000E+00 0.  1.
         21   -1    0    0  506  502 -0.00000000000E+00 -0.00000000000E+00 -0.78146767198E+02  0.78146767198E+02  0.00000000000E+00 0.  1.
         21    1    1    2  503  505  0.31127253049E+02  0.86205114361E+02  0.15697653557E+03  0.18177420154E+03  0.00000000000E+00 0.  1.
         21    1    1    2  504  503 -0.81658626986E+02 -0.82662273251E+02  0.50538264967E+03  0.51856803350E+03  0.00000000000E+00 0.  1.
         21    1    1    2  505  502  0.53271653121E+02  0.47739259709E+02  0.23839683843E+03  0.24889748596E+03  0.00000000000E+00 0.  1.
         21    1    1    2  506  501 -0.27402791842E+01 -0.51282100820E+02 -0.41673367750E+02  0.66136469320E+02  0.00000000000E+00 0.  1.
<scales pt_clust_3="62.64191" pt_clust_4="126.97888" pt_clust_5="62.64191" pt_clust_6="51.35526"></scales>
<clustering>
<clus scale="   51.355">  2  6  1 -1</clus>
<clus scale="   62.642">  3  5 -1 -1</clus>
<clus scale="  126.979">  1  4  2 -1</clus>
<clus scale="  126.979">  1  3  2 -1</clus>
</clustering>
</event>
<event>
 6    0  0.1555973E+002  0.1241242E+03  0.7546771E-02  0.1236444E+00
         21   -1    0    0  505  501  0.00000000000E+00  0.00000000000E+00  0.36034103198E+03  0.36034103198E+03  0.00000000000E+00 0. -1.
         21   -1    0    0  506  502 -0.00000000000E+00 -0.00000000000E+00 -0.48046882678E+03  0.48046882678E+03  0.00000000000E+00 0. -1.
         21    1    1    2  503  501 -0.86514264079E+02  0.86258117052E+02  0.16937243995E+03  0.20883535156E+03  0.00000000000E+00 0. -1.
         21    1    1    2  504  502  0.11040617319E+03  0.19048568934E+02 -0.47604573449E+02  0.12173153441E+03  0.00000000000E+00 0. -1.
         21    1    1    2  505  504  0.62588883110E+02 -0.11255595571E+01  0.11367167274E+03  0.12976858001E+03  0.00000000000E+00 0. -1.
         21    1    1    2  506  503 -0.86480792220E+02 -0.10418112643E+03 -0.35556733404E+03  0.38047439279E+03  0.00000000000E+00 0. -1.
<scales pt_clust_3="93.00524" pt_clust_4="14000.00000" pt_clust_5="62.59900" pt_clust_6="124.12415"></scales>
<clustering>
<clus scale="   62.599">  1  5  2 -1</clus>
<clus scale="   93.005">  1  3  2 -1</clus>
<clus scale="  124.124">  2  6  1 -1</clus>
<clus scale="   62.599">  1  3  2 -1</clus>
</clustering>
</event>
<event>
 6    0  0.1555973E+002  0.7701561E+02  0.7546771E-02  0.1337741E+00
         21   -1    0    0  504  501  0.00000000000E+00  0.00000000000E+00  0.14243974380E+04  0.14243974380E+04  0.00000000000E+00 0. -1.
         21   -1    0    0  505  502 -0.00000000000E+00 -0.00000000000E+00 -0.77734521795E+02  0.77734521795E+02  0.00000000000E+00 0.  1.
         21    1    1    2  503  502 -0.48871485918E+02  0.64348400600E+02  0.59177614485E+03  0.59726723032E+03  0.00000000000E+00 0. -1.
         21    1    1    2  504  503  0.51225269902E+02 -0.24136487541E+02  0.18196914510E+03  0.19057641007E+03  0.00000000000E+00 0. -1.
         21    1    1    2  505  506 -0.60081879085E+02 -0.49651564657E+02 -0.47396395464E+02  0.91222411556E+02  0.00000000000E+00 0.  1.
         21    1    1    2  506  501  0.57728095101E+02  0.94396515979E+01  0.62031402174E+03  0.62306590787E+03  0.00000000000E+00 0. -1.
<scales pt_clust_3="58.07496" pt_clust_4="56.62683" pt_clust_5="14000.00000" pt_clust_6="77.01561"></scales>
<clustering>
<clus scale="   56.627">  1  4  2 -1</clus>
<clus scale="   58.075">  1  3  2 -1</clus>
<clus scale="   77.016">  1  6  2 -1</clus>
<clus scale="   56.627">  1  3  2 -1</clus>
</clustering>
</event>
<event>
 6    0  0.1555973E+002  0.6536916E+02  0.7546771E-02  0.1376588E+00
         21   -1    0    0  503  501  0.00000000000E+00  0.00000000000E+00  0.93166999604E+03  0.93166999604E+03  0.00000000000E+00 0.  1.
         21   -1    0    0  506  502 -0.00000000000E+00 -0.00000000000E+00 -0.67353863482E+02  0.67353863482E+02  0.00000000000E+00 0.  1.
         21    1    1    2  503  504 -0.41516141730E+02 -0.39307404101E+02  0.46838847854E+03  0.47186484174E+03  0.00000000000E+00 0.  1.
         21    1    1    2  504  505  0.51770136505E+02  0.43637630994E+02  0.26337397396E+03  0.27193793415E+03  0.00000000000E+00 0.  1.
         21    1    1    2  505  502 -0.10256906887E+02  0.64280769813E+02 -0.35183607183E+02  0.73993970843E+02  0.00000000000E+00 0.  1.
         21    1    1    2  506  501  0.29121120140E-02 -0.68610996706E+02  0.16773728725E+03  0.18122711280E+03  0.00000000000E+00 0. -1.
<scales pt_clust_3="57.17221" pt_clust_4="34.66109" pt_clust_5="65.36916" pt_clust_6="14000.00000"></scales>
<clustering>
<clus scale="   57.172">  1  3  2 -1</clus>
<clus scale="   34.661">  1  4  2 -1</clus>
<clus scale="   65.369">  2  5  1 -1</clus>
<clus scale="   57.172">  1  3  2 -1</clus>
</clustering>
</event>
<event>
 6    0  0.1555973E+002  0.1273496E+03  0.7546771E-02  0.1231442E+00
         21   -1    0    0  506  501  0.00000000000E+00  0.00000000000E+00  0.59480670893E+02  0.59480670893E+02  0.00000000000E+00 0.  1.
         21   -1    0    0  503  502 -0.00000000000E+00 -0.00000000000E+00 -0.59084234685E+03  0.59084234685E+03  0.00000000000E+00 0.  1.
         21    1    1    2  503  505 -0.52285898848E+02 -0.35290424881E+02 -0.33015460233E+02  0.71198665163E+02  0.00000000000E+00 0.  1.
         21    1    1    2  504  502  0.77887607438E+01 -0.40015506913E+02 -0.22997422490E+03  0.23355952069E+03  0.00000000000E+00 0.  1.
         21    1    1    2  505  501 -0.62333601849E+02  0.40234542693E+01 -0.19377182685E+02  0.65399857130E+02  0.00000000000E+00 0.  1.
         21    1    1    2  506  504  0.10683073995E+03  0.71282477525E+02 -0.24899480814E+03  0.28016497476E+03  0.00000000000E+00 0.  1.
<scales pt_clust_3="41.03344" pt_clust_4="40.76648" pt_clust_5="41.03344" pt_clust_6="120.07912"></scales>
<clustering>
<clus scale="   40.766">  2  4  1 -1</clus>
<clus scale="   41.033">  3  5 -1 -1</clus>
<clus scale="  120.079">  2  6  1 -1</clus>
<clus scale="  127.350">  1  3  2 -1</clus>
</clustering>
</event>
<event>
 6    0  0.1555973E+002  0.2472441E+03  0.7546771E-02  0.1115059E+00
         21   -1    0    0  505  501  0.00000000000E+00  0.00000000000E+00  0.95610763573E+02  0.95610763573E+02  0.00000000000E+00 0. -1.
         21   -1    0    0  506  502 -0.00000000000E+00 -0.00000000000E+00 -0.91000181708E+03  0.91000181708E+03  0.00000000000E+00 0. -1.
         21    1    1    2  503  502 -0.16377633061E+02 -0.25026543513E+03 -0.55774823279E+03  0.61154239924E+03  0.00000000000E+00 0. -1.
         21    1    1    2  504  503 -0.16246786549E+02  0.61507959318E+02 -0.41472255129E+02  0.75941655750E+02  0.00000000000E+00 0. -1.
         21    1    1    2  505  504  0.72805449697E+02  0.16371186264E+03 -0.13243579607E+03  0.22280360759E+03  0.00000000000E+00 0. -1.
         21    1    1    2  506  501 -0.40181030087E+02  0.25045613177E+02 -0.82734769517E+02  0.95324918071E+02  0.00000000000E+00 0.  1.
<scales pt_clust_3="236.74408" pt_clust_4="42.47823" pt_clust_5="42.47823" pt_clust_6="47.34763"></scales>
<clustering>
<clus scale="   42.478">  4  5 -1 -1</clus>
<clus scale="   47.348">  2  6  1 -1</clus>
<clus scale="  236.744">  2  3  1 -1</clus>
<clus scale="  247.244">  1  3  2 -1</clus>
</clustering>
</event>
<event>
 6    0  0.1555973E+002  0.8264050E+02  0.7546771E-02  0.1321721E+00
         21   -1    0    0  506  501  0.00000000000E+00  0.00000000000E+00  0.13590863132E+04  0.13590863132E+04  0.00000000000E+00 0. -1.
         21   -1    0    0  503  502 -0.00000000000E+00 -0.00000000000E+00 -0.25790218441E+03  0.25790218441E+03  0.00000000000E+00 0.  1.
         21    1    1    2  503  505  0.65818907505E+02 -0.50064528576E+02 -0.22264627755E+03  0.23750779042E+03  0.00000000000E+00 0.  1.
         21    1    1    2  504  502  0.69536628535E+01  0.75767638942E+02  0.83836848111E+02  0.11321530656E+03  0.00000000000E+00 0. -1.
         21    1    1    2  505  501 -0.67113203719E+02  0.33791758472E+02  0.11771355764E+04  0.11795313604E+04  0.00000000000E+00 0. -1.
         21    1    1    2  506  504 -0.56593666389E+01 -0.59494868838E+02  0.62857981853E+02  0.86734040211E+02  0.00000000000E+00 0.  1.
<scales pt_clust_3="14000.00000" pt_clust_4="71.50125" pt_clust_5="82.64050" pt_clust_6="59.76343"></scales>
<clustering>
<clus scale="   59.763">  1  6  2 -1</clus>
<clus scale="   71.501">  1  4  2 -1</clus>
<clus scale="   82.641">  1  5  2 -1</clus>
<clus scale="   59.763">  1  3  2 -1</clus>
</clustering>
</event>
<event>
 6    0  0.1555973E+002  0.7327304E+02  0.7546771E-02  0.1349304E+00
         21   -1    0    0  506  501  0.00000000000E+00  0.00000000000E+00  0.70028806481E+03  0.70028806481E+03  0.00000000000E+00 0. -1.
         21   -1    0    0  503  502 -0.00000000000E+00 -0.00000000000E+00 -0.68906099156E+03  0.68906099156E+03  0.00000000000E+00 0. -1.
         21    1    1    2  503  504 -0.20998828665E+02  0.22770377163E+02 -0.47780787149E+01  0.31341201599E+02  0.00000000000E+00 0.  1.
         21    1    1    2  504  501 -0.47909505870E+02  0.77878222553E+02  0.32202321769E+03  0.33475258182E+03  0.00000000000E+00 0. -1.
         21    1    1    2  505  502  0.82647986244E+02 -0.60920166432E+02 -0.65941821747E+03  0.66736372529E+03  0.00000000000E+00 0. -1.
         21    1    1    2  506  505 -0.13739651709E+02 -0.39728433284E+02  0.35340015175E+03  0.35589154766E+03  0.00000000000E+00 0. -1.
<scales pt_clust_3="30.97484" pt_clust_4="73.27304" pt_clust_5="14000.00000" pt_clust_6="42.01002"></scales>
<clustering>
<clus scale="   30.975">  2  3  1 -1</clus>
<clus scale="   42.010">  1  6  2 -1</clus>
<clus scale="   73.273">  1  4  2 -1</clus>
<clus scale="   42.010">  1  3  2 -1</clus>
</clustering>
</event>
<event>
 6    0  0.1555973E+002  0.1462145E+03  0.7546771E-02  0.1205203E+00
         21   -1    0    0  504  501  0.00000000000E+00  0.00000000000E+00  0.54567018498E+02  0.54567018498E+02  0.00000000000E+00 0.  1.
         21   -1    0    0  503  502 -0.00000000000E+00 -0.00000000000E+00 -0.15578970581E+04  0.15578970581E+04  0.00000000000E+00 0. -1.
         21    1    1    2  503  505  0.30550479780E+02 -0.10326483318E+03 -0.97847741621E+03  0.98438560109E+03  0.00000000000E+00 0. -1.
         21    1    1    2  504  506 -0.13519135948E+02 -0.44679435974E+02 -0.37053756327E+02  0.59598656811E+02  0.00000000000E+00 0. -1.
         21    1    1    2  505  501 -0.56521346105E+02  0.20873753768E+03 -0.39911274985E+03  0.45393502761E+03  0.00000000000E+00 0.  1.
         21    1    1    2  506  502  0.39490002273E+02 -0.60793268530E+02 -0.88686117199E+02  0.11454479107E+03  0.00000000000E+00 0.  1.
<scales pt_clust_3="107.68917" pt_clust_4="41.82317" pt_clust_5="136.60983" pt_clust_6="41.82317"></scales>
<clustering>
<clus scale="   41.823">  4  6 -1 -1</clus>
<clus scale="  107.689">  2  3  1 -1</clus>
<clus scale="  136.610">  2  5  1 -1</clus>
<clus scale="  146.215">  1  3  2 -1</clus>
</clustering>
</event>
<event>
 6    0  0.1555973E+002  0.1621475E+03  0.7546771E-02  0.1186293E+00
         21   -1    0    0  505  501  0.00000000000E+00  0.00000000000E+00  0.29252551749E+02  0.29252551749E+02  0.00000000000E+00 0. -1.
         21   -1    0    0  504  502 -0.00000000000E+00 -0.00000000000E+00 -0.20189081134E+04  0.20189081134E+04  0.00000000000E+00 0. -1.
         21    1    1    2  503  502  0.72031256221E+02  0.13371123046E+03 -0.16389854083E+04  0.16460074009E+04  0.00000000000E+00 0. -1.
         21    1    1    2  504  506 -0.26228074371E+02 -0.29775388476E+02 -0.14201282891E+03  0.14745212518E+03  0.00000000000E+00 0. -1.
         21    1    1    2  505  503  0.27990937390E+02 -0.23165741343E+02 -0.59614977923E+02  0.69814681412E+02  0.00000000000E+00 0. -1.
         21    1    1    2  506  501 -0.73794119240E+02 -0.80770100638E+02 -0.14904234653E+03  0.18488645773E+03  0.00000000000E+00 0. -1.
<scales pt_clust_3="150.93284" pt_clust_4="35.68509" pt_clust_5="36.33379" pt_clust_6="35.68509"></scales>
<clustering>
<clus scale="   35.685">  4  6 -1 -1</clus>
<clus scale="   36.334">  1  5  2 -1</clus>
<clus scale="  150.933">  2  3  1 -1</clus>
<clus scale="   36.334">  1  3  2 -1</clus>
</clustering>
</event>
<event>
 6    0  0.1555973E+002  0.2127515E+03  0.7546771E-02  0.1139405E+00
         21   -1    0    0  506  501  0.00000000000E+00  0.00000000000E+00  0.88761847172E+03  0.88761847172E+03  0.00000000000E+00 0.  1.
         21   -1    0    0  503  502 -0.00000000000E+00 -0.00000000000E+00 -0.10118123757E+03  0.10118123757E+03  0.00000000000E+00 0. -1.
         21    1    1    2  503  505  0.42597379215E+02  0.27138741952E+02 -0.38703243351E+02  0.63631667247E+02  0.00000000000E+00 0. -1.
         21    1    1    2  504  502 -0.68153899566E+01  0.39913320586E+02  0.35212027576E+02  0.53660130324E+02  0.00000000000E+00 0. -1.
         21    1    1    2  505  501 -0.46411598794E+02 -0.21268591139E+03  0.40471327756E+03  0.45954561301E+03  0.00000000000E+00 0.  1.
         21    1    1    2  506  504  0.10629609535E+02  0.14563384885E+03  0.38521517237E+03  0.41196229871E+03  0.00000000000E+00 0.  1.
<scales pt_clust_3="50.50790" pt_clust_4="39.41653" pt_clust_5="199.14891" pt_clust_6="39.41653"></scales>
<clustering>
<clus scale="   39.417">  4  6 -1 -1</clus>
<clus scale="   50.508">  2  3  1 -1</clus>
<clus scale="  199.149">  2  5  1 -1</clus>
<clus scale="  212.752">  1  3  2 -1</clus>
</clustering>
</event>
<event>
 6    0  0.1555973E+002  0.1393477E+03  0.7546771E-02  0.1214209E+00
         21   -1    0    0  504  501  0.00000000000E+00  0.00000000000E+00  0.80557560555E+03  0.80557560555E+03  0.00000000000E+00 0. -1.
         21   -1    0    0  505  502 -0.00000000000E+00 -0.00000000000E+00 -0.38363907400E+02  0.38363907400E+02  0.00000000000E+00 0.  1.
         21    1    1    2  503  501  0.52101484230E+02  0.53857865998E+02  0.24243950043E+03  0.25375607531E+03  0.00000000000E+00 0. -1.
         21    1    1    2  504  502  0.43597172486E+02 -0.18154616311E+02  0.76200518723E+02  0.89648327345E+02  0.00000000000E+00 0. -1.
         21    1    1    2  505  506 -0.97961460922E+02 -0.97917508500E+02  0.19341998909E+03  0.23789825236E+03  0.00000000000E+00 0.  1.
         21    1    1    2  506  503  0.22628042068E+01  0.62214258813E+02  0.25515168991E+03  0.26263685794E+03  0.00000000000E+00 0.  1.
<scales pt_clust_3="46.80117" pt_clust_4="47.22609" pt_clust_5="129.54274" pt_clust_6="46.80117"></scales>
<clustering>
<clus scale="   46.801">  3  6 -1 -1</clus>
<clus scale="   47.226">  2  4  1 -1</clus>
<clus scale="  129.543">  2  5  1 -1</clus>
<clus scale="  139.348">  1  3  2 -1</clus>
</clustering>
</event>
<event>
 6    0  0.1555973E+002  0.1607333E+03  0.7546771E-02  0.1187871E+00
         21   -1    0    0  503  501  0.00000000000E+00  0.00000000000E+00  0.20170858776E+04  0.20170858776E+04  0.00000000000E+00 0. -1.
         21   -1    0    0  504  502 -0.00000000000E+00 -0.00000000000E+00 -0.70907590046E+02  0.70907590046E+02  0.00000000000E+00 0. -1.
         21    1    1    2  503  502 -0.33085631845E+01  0.33052913277E+02 -0.48049385810E+02  0.58413912240E+02  0.00000000000E+00 0. -1.
         21    1    1    2  504  506 -0.33915121667E+02  0.12435218470E+03  0.29344420678E+03  0.32050460810E+03  0.00000000000E+00 0. -1.
         21    1    1    2  505  501  0.27255580356E+02 -0.44159508866E+02  0.40428923674E+03  0.40760607924E+03  0.00000000000E+00 0. -1.
         21    1    1    2  506  505  0.99681044955E+01 -0.11324558911E+03  0.12964942298E+04  0.13014688681E+04  0.00000000000E+00 0. -1.
<scales pt_clust_3="33.21809" pt_clust_4="154.02727" pt_clust_5="31.04073" pt_clust_6="31.04073"></scales>
<clustering>
<clus scale="   31.041">  5  6 -1 -1</clus>
<clus scale="   33.218">  2  3  1 -1</clus>
<clus scale="  154.027">  2  4  1 -1</clus>
<clus scale="  160.733">  1  3  2 -1</clus>
</clustering>
</event>
<event>
 6    0  0.1555973E+002  0.1144150E+03  0.7546771E-02  0.1252606E+00
         21   -1    0    0  502  501  0.00000000000E+00  0.00000000000E+00  0.12893518980E+03  0.12893518980E+03  0.00000000000E+00 0. -1.
         21   -1    0    0  503  502 -0.00000000000E+00 -0.00000000000E+00 -0.27566056666E+03  0.27566056666E+03  0.00000000000E+00 0. -1.
         21    1    1    2  503  504 -0.37615546435E+02 -0.32130215875E+02 -0.15540728613E+03  0.16309109322E+03  0.00000000000E+00 0. -1.
         21    1    1    2  504  505 -0.30313697493E+02 -0.30856136065E+02 -0.46882012265E+02  0.63788278410E+02  0.00000000000E+00 0. -1.
         21    1    1    2  505  506 -0.10601816339E+01 -0.37587310764E+02 -0.10460729054E+02  0.39030203278E+02  0.00000000000E+00 0. -1.
         21    1    1    2  506  501  0.68989425561E+02  0.10057366270E+03  0.66024650592E+02  0.13868618156E+03  0.00000000000E+00 0. -1.
<scales pt_clust_3="49.46999" pt_clust_4="37.46477" pt_clust_5="37.46477" pt_clust_6="107.12689"></scales>
<clustering>
<clus scale="   37.465">  4  5 -1 -1</clus>
<clus scale="   49.470">  2  3  1 -1</clus>
<clus scale="  107.127">  1  6  2 -1</clus>
<clus scale="  107.127">  1  3  2 -1</clus>
</clustering>
</event>
<event>
 6    0  0.1555973E+002  0.1481215E+03  0.7546771E-02  0.1202800E+00
         21   -1    0    0  504  501  0.00000000000E+00  0.00000000000E+00  0.53280003661E+03  0.53280003661E+03  0.00000000000E+00 0.  1.
         21   -1    0    0  506  502 -0.00000000000E+00 -0.00000000000E+00 -0.98294704943E+02  0.98294704943E+02  0.00000000000E+00 0.  1.
         21    1    1    2  503  505 -0.77738253454E+01 -0.75293032668E+02  0.12786179579E+03  0.14858705176E+03  0.00000000000E+00 0.  1.
         21    1    1    2  504  502 -0.93656998026E+01  0.14406308168E+03 -0.10144966368E+02  0.14472321230E+03  0.00000000000E+00 0.  1.
         21    1    1    2  505  501 -0.20506611204E+02 -0.37533237829E+02  0.25699733137E+03  0.26053194311E+03  0.00000000000E+00 0.  1.
         21    1    1    2  506  503  0.37646136352E+02 -0.31236811181E+02  0.59791170872E+02  0.77252534388E+02  0.00000000000E+00 0.  1.
<scales pt_clust_3="43.87018" pt_clust_4="135.61364" pt_clust_5="42.76991" pt_clust_6="43.87018"></scales>
<clustering>
<clus scale="   42.770">  1  5  2 -1</clus>
<clus scale="   43.870">  3  6 -1 -1</clus>
<clus scale="  135.614">  2  4  1 -1</clus>
<clus scale="   42.770">  1  3  2 -1</clus>
</clustering>
</event>
<event>
 6    0  0.1555973E+002  0.2961297E+03  0.7546771E-02  0.1087191E+00
         21   -1    0    0  504  501  0.00000000000E+00  0.00000000000E+00  0.23179757545E+04  0.23179757545E+04  0.00000000000E+00 0.  1.
         21   -1    0    0  501  502 -0.00000000000E+00 -0.00000000000E+00 -0.63815468418E+02  0.63815468418E+02  0.00000000000E+00 0.  1.
         21    1    1    2  503  506 -0.48361154432E+02 -0.26258123328E+03  0.64467606050E+03  0.69777856682E+03  0.00000000000E+00 0.  1.
         21    1    1    2  504  505 -0.97281545721E+01  0.19668785179E+03  0.10880796640E+04  0.11057568011E+04  0.00000000000E+00 0.  1.
         21    1    1    2  505  503  0.40957619754E+02  0.10242595015E+03  0.52618494472E+03  0.53762365827E+03  0.00000000000E+00 0.  1.
         21    1    1    2  506  502  0.17131689250E+02 -0.36532568662E+02 -0.47803830951E+01  0.40632196743E+02  0.00000000000E+00 0.  1.
<scales pt_clust_3="288.59669" pt_clust_4="49.84248" pt_clust_5="49.84248" pt_clust_6="40.35001"></scales>
<clustering>
<clus scale="   40.350">  2  6  1 -1</clus>
<clus scale="   49.842">  4  5 -1 -1</clus>
<clus scale="  288.597">  2  3  1 -1</clus>
<clus scale="  296.130">  1  3  2 -1</clus>
</clustering>
</event>
<event>
 6    0  0.1555973E+002  0.1094013E+03  0.7546771E-02  0.1261683E+00
         21   -1    0    0  503  501  0.00000000000E+00  0.00000000000E+00  0.23178922998E+03  0.23178922998E+03  0.00000000000E+00 0. -1.
         21   -1    0    0  506  502 -0.00000000000E+00 -0.00000000000E+00 -0.29847143213E+04  0.29847143213E+04  0.00000000000E+00 0. -1.
         21    1    1    2  503  504  0.46133264314E+02  0.66163551979E+02  0.17111115114E+03  0.18916902424E+03  0.00000000000E+00 0. -1.
         21    1    1    2  504  502  0.34753495024E+02 -0.13839660721E+03 -0.11793764291E+03  0.18512350990E+03  0.00000000000E+00 0.  1.
         21    1    1    2  505  501 -0.20387098105E+02  0.41537011855E+02 -0.12690488225E+02  0.47979220652E+02  0.00000000000E+00 0. -1.
         21    1    1    2  506  505 -0.60499661233E+02  0.30696043375E+02 -0.27934081114E+04  0.27942317965E+04  0.00000000000E+00 0. -1.
<scales pt_clust_3="14000.00000" pt_clust_4="109.40130" pt_clust_5="46.27048" pt_clust_6="67.91254"></scales>
<clustering>
<clus scale="   46.270">  1  5  2 -1</clus>
<clus scale="   67.913">  2  6  1 -1</clus>
<clus scale="  109.401">  2  4  1 -1</clus>
<clus scale="   46.270">  1  3  2 -1</clus>
</clustering>
</event>
<event>
 6    0  0.1555973E+002  0.2229214E+03  0.7546771E-02  0.1131724E+00
         21   -1    0    0  505  501  0.00000000000E+00  0.00000000000E+00  0.75221200189E+03  0.75221200189E+03  0.00000000000E+00 0. -1.
         21   -1    0    0  506  502 -0.00000000000E+00 -0.00000000000E+00 -0.51274451788E+03  0.51274451788E+03  0.00000000000E+00 0. -1.
         21    1    1    2  503  502  0.90112345740E+01 -0.35231570117E+02 -0.39486491683E+03  0.39653596108E+03  0.00000000000E+00 0. -1.
         21    1    1    2  504  501  0.47145781294E+02  0.85289226032E+02  0.38879101569E+03  0.40081845099E+03  0.00000000000E+00 0. -1.
         21    1    1    2  505  503 -0.21032334903E+02 -0.16699903567E+03 -0.25583004901E+02  0.17025136465E+03  0.00000000000E+00 0.  1.
         21    1    1    2  506  504 -0.35124680965E+02  0.11694137976E+03  0.27112439005E+03  0.29735074305E+03  0.00000000000E+00 0. -1.
<scales pt_clust_3="36.36572" pt_clust_4="94.24951" pt_clust_5="196.93602" pt_clust_6="94.24951"></scales>
<clustering>
<clus scale="   36.366">  2  3  1 -1</clus>
<clus scale="   94.250">  4  6 -1 -1</clus>
<clus scale="  196.936">  2  5  1 -1</clus>
<clus scale="  222.921">  1  3  2 -1</clus>
</clustering>
</event>
<event>
 6    0  0.1555973E+002  0.1293350E+03  0.7546771E-02  0.1228446E+00
         21   -1    0    0  504  501  0.00000000000E+00  0.00000000000E+00  0.69128702152E+03  0.69128702152E+03  0.00000000000E+00 0. -1.
         21   -1    0    0  503  502 -0.00000000000E+00 -0.00000000000E+00 -0.91229931974E+02  0.91229931974E+02  0.00000000000E+00 0.  1.
         21    1    1    2  503  506  0.70055224733E+01 -0.11469494893E+03  0.31435738750E+03  0.33470072562E+03  0.00000000000E+00 0. -1.
         21    1    1    2  504  505  0.16101074522E+02  0.44479019669E+02  0.11212256227E+03  0.12169263232E+03  0.00000000000E+00 0. -1.
         21    1    1    2  505  502 -0.13798281359E+01  0.11755815054E+03 -0.25537766820E+02  0.12030793913E+03  0.00000000000E+00 0.  1.
         21    1    1    2  506  501 -0.21726768860E+02 -0.47342221271E+02  0.19911490660E+03  0.20581565643E+03  0.00000000000E+00 0. -1.
<scales pt_clust_3="30.34573" pt_clust_4="47.30357" pt_clust_5="121.22759" pt_clust_6="30.34573"></scales>
<clustering>
<clus scale="   30.346">  3  6 -1 -1</clus>
<clus scale="   47.304">  1  4  2 -1</clus>
<clus scale="  121.228">  2  5  1 -1</clus>
<clus scale="   47.304">  1  3  2 -1</clus>
</clustering>
</event>
<event>
 6    0  0.1555973E+002  0.1167904E+03  0.7546771E-02  0.1248488E+00
         21   -1    0    0  505  501  0.00000000000E+00  0.00000000000E+00  0.12171662755E+03  0.12171662755E+03  0.00000000000E+00 0. -1.
         21   -1    0    0  503  502 -0.00000000000E+00 -0.00000000000E+00 -0.46559090037E+03  0.46559090037E+03  0.00000000000E+00 0. -1.
         21    1    1    2  503  501 -0.15625449952E+02  0.52074009300E+02 -0.94453074588E+01  0.55182161645E+02  0.00000000000E+00 0. -1.
         21    1    1    2  504  502  0.12822132280E+03 -0.28519806080E+02 -0.32959088101E+03  0.35480168518E+03  0.00000000000E+00 0. -1.
         21    1    1    2  505  506 -0.28655326308E+02 -0.50276537315E+02  0.47491233997E+02  0.74861707413E+02  0.00000000000E+00 0. -1.
         21    1    1    2  506  504 -0.83940546541E+02  0.26722334095E+02 -0.52329318349E+02  0.10246197369E+03  0.00000000000E+00 0. -1.
<scales pt_clust_3="54.36779" pt_clust_4="14000.00000" pt_clust_5="42.36282" pt_clust_6="116.79043"></scales>
<clustering>
<clus scale="   54.368">  1  3  2 -1</clus>
<clus scale="   42.363">  1  5  2 -1</clus>
<clus scale="  116.790">  1  6  2 -1</clus>
<clus scale="   54.368">  1  3  2 -1</clus>
</clustering>
</event>
<event>
 6    0  0.1555973E+002  0.1038125E+03  0.7546771E-02  0.1272477E+00
         21   -1    0    0  502  501  0.00000000000E+00  0.00000000000E+00  0.17766459098E+03  0.17766459098E+03  0.00000000000E+00 0.  1.
         21   -1    0    0  505  502 -0.00000000000E+00 -0.00000000000E+00 -0.35142866547E+03  0.35142866547E+03  0.00000000000E+00 0.  1.
         21    1    1    2  503  506 -0.52431243114E+02 -0.57797648853E+02  0.22253557312E+02  0.81146930197E+02  0.00000000000E+00 0. -1.
         21    1    1    2  504  503 -0.37641914840E+02 -0.80436658822E+01 -0.19368505313E+02  0.43090060475E+02  0.00000000000E+00 0. -1.
         21    1    1    2  505  504  0.30134502794E+02  0.82257500893E+02 -0.27494427464E+03  0.28856323202E+03  0.00000000000E+00 0.  1.
         21    1    1    2  506  501  0.59938655160E+02 -0.16416186159E+02  0.98295148156E+02  0.11629303376E+03  0.00000000000E+00 0.  1.
<scales pt_clust_3="38.32811" pt_clust_4="38.32811" pt_clust_5="88.31066" pt_clust_6="62.14607"></scales>
<clustering>
<clus scale="   38.328">  3  4 -1 -1</clus>
<clus scale="   62.146">  1  6  2 -1</clus>
<clus scale="   88.311">  2  5  1 -1</clus>
<clus scale="   62.146">  1  3  2 -1</clus>
</clustering>
</event>
<event>
 6    0  0.1555973E+002  0.7273569E+02  0.7546771E-02  0.1351030E+00
         21   -1    0    0  506  501  0.00000000000E+00  0.00000000000E+00  0.16057276081E+04  0.16057276081E+04  0.00000000000E+00 0. -1.
         21   -1    0    0  503  502 -0.00000000000E+00 -0.00000000000E+00 -0.61639742896E+02  0.61639742896E+02  0.00000000000E+00 0. -1.
         21    1    1    2  503  501  0.82091454654E+02 -0.75658445273E+00 -0.13334217362E+02  0.83170792349E+02  0.00000000000E+00 0. -1.
         21    1    1    2  504  502 -0.43658214154E+02  0.42424687011E+02  0.84988306631E+02  0.10454140804E+03  0.00000000000E+00 0. -1.
         21    1    1    2  505  504  0.47289248482E+01 -0.71783649902E+02  0.43675738822E+03  0.44264237403E+03  0.00000000000E+00 0. -1.
         21    1    1    2  506  505 -0.43162165348E+02  0.30115547343E+02  0.10356763877E+04  0.10370127765E+04  0.00000000000E+00 0. -1.
<scales pt_clust_3="72.73569" pt_clust_4="14000.00000" pt_clust_5="56.32940" pt_clust_6="52.63002"></scales>
<clustering>
<clus scale="   52.630">  1  6  2 -1</clus>
<clus scale="   56.329">  1  5  2 -1</clus>
<clus scale="   72.736">  2  3  1 -1</clus>
<clus scale="   52.630">  1  3  2 -1</clus>
</clustering>
</event>
<event>
 6    0  0.1555973E+002  0.9331970E+02  0.7546771E-02  0.1295006E+00
         21   -1    0    0  503  501  0.00000000000E+00  0.00000000000E+00  0.11256778943E+03  0.11256778943E+03  0.00000000000E+00 0.  1.
         21   -1    0    0  504  502 -0.00000000000E+00 -0.00000000000E+00 -0.71099069917E+03  0.71099069917E+03  0.00000000000E+00 0. -1.
         21    1    1    2  503  505 -0.10855610640E+03  0.30299689113E+02  0.31226259113E+02  0.11695118065E+03  0.00000000000E+00 0.  1.
         21    1    1    2  504  506  0.65614284940E+02  0.84393479512E+01 -0.18838256618E+02  0.68784714104E+02  0.00000000000E+00 0. -1.
         21    1    1    2  505  502  0.44381069083E+02 -0.82894484659E+02 -0.56991938741E+03  0.57762382485E+03  0.00000000000E+00 0. -1.
         21    1    1    2  506  501 -0.14392476234E+01  0.44155447594E+02 -0.40891524823E+02  0.60198768993E+02  0.00000000000E+00 0.  1.
<scales pt_clust_3="93.31970" pt_clust_4="68.01769" pt_clust_5="14000.00000" pt_clust_6="44.17890"></scales>
<clustering>
<clus scale="   44.179">  1  6  2 -1</clus>
<clus scale="   68.018">  1  4  2 -1</clus>
<clus scale="   93.320">  1  3  2 -1</clus>
<clus scale="   44.179">  1  3  2 -1</clus>
</clustering>
</event>
<event>
 6    0  0.3169465E+002  0.1492337E+03  0.7546771E-02  0.1201418E+00
         21   -1    0    0  504  501  0.00000000000E+00  0.00000000000E+00  0.39946173423E+03  0.39946173423E+03  0.00000000000E+00 0.  1.
         21   -1    0    0  503  502 -0.00000000000E+00 -0.00000000000E+00 -0.10340635961E+04  0.10340635961E+04  0.00000000000E+00 0. -1.
         21    1    1    2  503  501 -0.19727556821E+02 -0.28656607115E+02 -0.38456802307E+01  0.35002384003E+02  0.00000000000E+00 0.  1.
         21    1    1    2  504  506  0.41787732585E+01 -0.37696790551E+02  0.14801384966E+03  0.15279597460E+03  0.00000000000E+00 0.  1.
         21    1    1    2  505  502 -0.64826502782E+02  0.12046865556E+03 -0.99732082946E+03  0.10066598280E+04  0.00000000000E+00 0. -1.
         21    1    1    2  506  505  0.80375286345E+02 -0.54115257899E+02  0.21855079821E+03  0.23906714369E+03  0.00000000000E+00 0.  1.
<scales pt_clust_3="34.79048" pt_clust_4="42.30845" pt_clust_5="136.61068" pt_clust_6="42.30845"></scales>
<clustering>
<clus scale="   34.790">  1  3  2 -1</clus>
<clus scale="   42.308">  4  6 -1 -1</clus>
<clus scale="  136.611">  2  5  1 -1</clus>
<clus scale="   34.790">  1  3  2 -1</clus>
</clustering>
</event>
<event>
 6    0  0.1555973E+002  0.1851697E+03  0.7546771E-02  0.1162891E+00
         21   -1    0    0  505  501  0.00000000000E+00  0.00000000000E+00  0.60891482792E+03  0.60891482792E+03  0.00000000000E+00 0. -1.
         21   -1    0    0  501  502 -0.00000000000E+00 -0.00000000000E+00 -0.23956051909E+03  0.23956051909E+03  0.00000000000E+00 0.  1.
         21    1    1    2  503  506  0.33531425546E+02  0.42262309119E+02  0.97779583630E+02  0.11167500278E+03  0.00000000000E+00 0.  1.
         21    1    1    2  504  503  0.85815051680E+02  0.20044586109E+02  0.33058841865E+03  0.34213259282E+03  0.00000000000E+00 0. -1.
         21    1    1    2  505  504  0.53954300007E+02 -0.28149251258E+02  0.12535192049E+03  0.13934328404E+03  0.00000000000E+00 0.  1.
         21    1    1    2  506  502 -0.17330077723E+03 -0.34157643969E+02 -0.18436561394E+03  0.25532446737E+03  0.00000000000E+00 0.  1.
<scales pt_clust_3="51.40492" pt_clust_4="51.40492" pt_clust_5="60.85595" pt_clust_6="173.12242"></scales>
<clustering>
<clus scale="   51.405">  3  4 -1 -1</clus>
<clus scale="   60.856">  1  5  2 -1</clus>
<clus scale="  173.122">  2  6  1 -1</clus>
<clus scale="   60.856">  1  3  2 -1</clus>
</clustering>
</event>
<event>
 6    0  0.1555973E+002  0.1155790E+03  0.7546771E-02  0.1250574E+00
         21   -1    0    0  506  501  0.00000000000E+00  0.00000000000E+00  0.18225086633E+02  0.18225086633E+02  0.00000000000E+00 0.  1.
         21   -1    0    0  505  502 -0.00000000000E+00 -0.00000000000E+00 -0.15741525406E+04  0.15741525406E+04  0.00000000000E+00 0. -1.
         21    1    1    2  503  504  0.57809265139E+02  0.62478830175E+02 -0.25226131978E+03  0.26623540112E+03  0.00000000000E+00 0.  1.
         21    1    1    2  504  502 -0.33500592289E+02  0.23549960588E+02 -0.86370775815E+03  0.86467796422E+03  0.00000000000E+00 0. -1.
         21    1    1    2  505  501 -0.60177845220E+02 -0.83309790819E+02 -0.34211623147E+03  0.35721899465E+03  0.00000000000E+00 0.  1.
         21    1    1    2  506  503  0.35869172370E+02 -0.27189999441E+01 -0.97842144585E+02  0.10424526725E+03  0.00000000000E+00 0.  1.
<scales pt_clust_3="31.42374" pt_clust_4="40.94985" pt_clust_5="104.98526" pt_clust_6="31.42374"></scales>
<clustering>
<clus scale="   31.424">  3  6 -1 -1</clus>
<clus scale="   40.950">  2  4  1 -1</clus>
<clus scale="  104.985">  2  5  1 -1</clus>
<clus scale="  115.579">  1  3  2 -1</clus>
</clustering>
</event>
<event>
 6    0  0.1555973E+002  0.1115475E+03  0.7546771E-02  0.1257731E+00
         21   -1    0    0  506  501  0.00000000000E+00  0.00000000000E+00  0.59466321836E+02  0.59466321836E+02  0.00000000000E+00 0.  1.
         21   -1    0    0  505  502 -0.00000000000E+00 -0.00000000000E+00 -0.35052430479E+03  0.35052430479E+03  0.00000000000E+00 0.  1.
         21    1    1    2  503  501 -0.62337247717E+02 -0.77049762419E+02 -0.76200629114E+02  0.12501653578E+03  0.00000000000E+00 0.  1.
         21    1    1    2  504  503 -0.21038662748E+02  0.51287921903E+02 -0.38668709802E+02  0.67589536033E+02  0.00000000000E+00 0.  1.
         21    1    1    2  505  504  0.33335600843E+02  0.52012537751E+02 -0.51278756528E+02  0.80287466257E+02  0.00000000000E+00 0.  1.
         21    1    1    2  506  502  0.50040309622E+02 -0.26250697235E+02 -0.12490988751E+03  0.13709708856E+03  0.00000000000E+00 0.  1.
<scales pt_clust_3="97.40633" pt_clust_4="51.49247" pt_clust_5="51.49247" pt_clust_6="56.50780"></scales>
<clustering>
<clus scale="   51.492">  4  5 -1 -1</clus>
<clus scale="   56.508">  2  6  1 -1</clus>
<clus scale="   97.406">  1  3  2 -1</clus>
<clus scale="   97.406">  1  3  2 -1</clus>
</clustering>
</event>
<event>
 6    0  0.1555973E+002  0.2234224E+03  0.7546771E-02  0.1131357E+00
         21   -1    0    0  505  501  0.00000000000E+00  0.00000000000E+00  0.53864646645E+03  0.53864646645E+03  0.00000000000E+00 0. -1.
         21   -1    0    0  501  502 -0.00000000000E+00 -0.00000000000E+00 -0.40436703836E+03  0.40436703836E+03  0.00000000000E+00 0. -1.
         21    1    1    2  503  502 -0.13149954589E+03  0.16047756820E+03 -0.34447356156E+03  0.40212835647E+03  0.00000000000E+00 0. -1.
         21    1    1    2  504  506  0.59134266150E+02 -0.80465967803E+01  0.13424225695E+03  0.14691015181E+03  0.00000000000E+00 0. -1.
         21    1    1    2  505  504 -0.19118596461E+00 -0.34369656384E+02  0.15756445405E+03  0.16126954769E+03  0.00000000000E+00 0. -1.
         21    1    1    2  506  503  0.72556465700E+02 -0.11806131504E+03  0.18694627864E+03  0.23270544884E+03  0.00000000000E+00 0. -1.
<scales pt_clust_3="205.46847" pt_clust_4="55.76475" pt_clust_5="34.37019" pt_clust_6="55.76475"></scales>
<clustering>
<clus scale="   34.370">  1  5  2 -1</clus>
<clus scale="   55.765">  4  6 -1 -1</clus>
<clus scale="  205.468">  2  3  1 -1</clus>
<clus scale="   34.370">  1  3  2 -1</clus>
</clustering>
</event>
<event>
 6    0  0.1555973E+002  0.1148375E+03  0.7546771E-02  0.1251865E+00
         21   -1    0    0  506  501  0.00000000000E+00  0.00000000000E+00  0.56672153339E+02  0.56672153339E+02  0.00000000000E+00 0.  1.
         21   -1    0    0  505  502 -0.00000000000E+00 -0.00000000000E+00 -0.94708107110E+03  0.94708107110E+03  0.00000000000E+00 0.  1.
         21    1    1    2  503  501 -0.19562427427E+02 -0.58719407024E+02 -0.62387889661E+02  0.87880066593E+02  0.00000000000E+00 0.  1.
         21    1    1    2  504  502  0.97738023808E+02  0.34612605883E+02 -0.45701593778E+03  0.46863026062E+03  0.00000000000E+00 0.  1.
         21    1    1    2  505  503 -0.15415882161E+03 -0.12510984921E+02 -0.29775835774E+03  0.33553167754E+03  0.00000000000E+00 0.  1.
         21    1    1    2  506  504  0.75983225226E+02  0.36617786063E+02 -0.73246732581E+02  0.11171121969E+03  0.00000000000E+00 0.  1.
<scales pt_clust_3="61.89230" pt_clust_4="114.83747" pt_clust_5="14000.00000" pt_clust_6="68.29499"></scales>
<clustering>
<clus scale="   61.892">  1  3  2 -1</clus>
<clus scale="   68.295">  1  6  2 -1</clus>
<clus scale="  114.837">  2  4  1 -1</clus>
<clus scale="   61.892">  1  3  2 -1</clus>
</clustering>
</event>
<event>
 6    0  0.1555973E+002  0.1980649E+03  0.7546771E-02  0.1151382E+00
         21   -1    0    0  505  501  0.00000000000E+00  0.00000000000E+00  0.16248949542E+04  0.16248949542E+04  0.00000000000E+00 0. -1.
         21   -1    0    0  506  502 -0.00000000000E+00 -0.00000000000E+00 -0.36126828082E+03  0.36126828082E+03  0.00000000000E+00 0. -1.
         21    1    1    2  503  504  0.48365694249E+02 -0.14027626388E+03  0.14699045302E+03  0.20886087204E+03  0.00000000000E+00 0. -1.
         21    1    1    2  504  501 -0.13418489380E+03 -0.17712048324E+02  0.12200242134E+04  0.12275090157E+04  0.00000000000E+00 0. -1.
         21    1    1    2  505  502  0.24704021381E+02 -0.45769720161E+02  0.18458335609E+03  0.19177114304E+03  0.00000000000E+00 0. -1.
         21    1    1    2  506  503  0.61115178171E+02  0.20375803237E+03 -0.28797134917E+03  0.35802220420E+03  0.00000000000E+00 0. -1.
<scales pt_clust_3="198.06487" pt_clust_4="126.55380" pt_clust_5="52.01111" pt_clust_6="14000.00000"></scales>
<clustering>
<clus scale="   52.011">  1  5  2 -1</clus>
<clus scale="  126.554">  1  4  2 -1</clus>
<clus scale="  198.065">  1  3  2 -1</clus>
<clus scale="   52.011">  1  3  2 -1</clus>
</clustering>
</event>
<event>
 6    0  0.1555973E+002  0.1342907E+03  0.7546771E-02  0.1221225E+00
         21   -1    0    0  505  501  0.00000000000E+00  0.00000000000E+00  0.46097801396E+02  0.46097801396E+02  0.00000000000E+00 0.  1.
         21   -1    0    0  506  502 -0.00000000000E+00 -0.00000000000E+00 -0.75139120932E+03  0.75139120932E+03  0.00000000000E+00 0.  1.
         21    1    1    2  503  501  0.32995711517E+02  0.48631140157E+01 -0.34651629294E+02  0.48094721843E+02  0.00000000000E+00 0.  1.
         21    1    1    2  504  502 -0.30397217819E+02  0.80823850063E+01 -0.47473889489E+01  0.31809644769E+02  0.00000000000E+00 0.  1.
         21    1    1    2  505  504 -0.89627886393E+02  0.65351928607E+02 -0.13896120153E+03  0.17780395981E+03  0.00000000000E+00 0.  1.
         21    1    1    2  506  503  0.87029392695E+02 -0.78297427629E+02 -0.52693318814E+03  0.53978068429E+03  0.00000000000E+00 0.  1.
<scales pt_clust_3="33.35216" pt_clust_4="31.44509" pt_clust_5="31.44509" pt_clust_6="120.61054"></scales>
<clustering>
<clus scale="   31.445">  4  5 -1 -1</clus>
<clus scale="   33.352">  1  3  2 -1</clus>
<clus scale="  120.611">  2  6  1 -1</clus>
<clus scale="   33.352">  1  3  2 -1</clus>
</clustering>
</event>
<event>
 6    0  0.1555973E+002  0.8915487E+02  0.7546771E-02  0.1304911E+00
         21   -1    0    0  506  501  0.00000000000E+00  0.00000000000E+00  0.14227617396E+03  0.14227617396E+03  0.00000000000E+00 0.  1.
         21   -1    0    0  504  502 -0.00000000000E+00 -0.00000000000E+00 -0.26388632812E+03  0.26388632812E+03  0.00000000000E+00 0.  1.
         21    1    1    2  503  501 -0.27400249683E+02 -0.13097313296E+02 -0.90837895201E+01  0.31699030432E+02  0.00000000000E+00 0.  1.
         21    1    1    2  504  503 -0.30904283514E+02 -0.93445481125E+01 -0.14690515462E+03  0.15041116904E+03  0.00000000000E+00 0.  1.
         21    1    1    2  505  502  0.97128493714E+01 -0.79010016525E+02 -0.40107873731E+02  0.89137891435E+02  0.00000000000E+00 0.  1.
         21    1    1    2  506  505  0.48591683827E+02  0.10145187793E+03  0.74486663707E+02  0.13491441118E+03  0.00000000000E+00 0.  1.
<scales pt_clust_3="30.36961" pt_clust_4="32.68800" pt_clust_5="89.15487" pt_clust_6="14000.00000"></scales>
<clustering>
<clus scale="   30.370">  1  3  2 -1</clus>
<clus scale="   32.688">  2  4  1 -1</clus>
<clus scale="   89.155">  2  5  1 -1</clus>
<clus scale="   30.370">  1  3  2 -1</clus>
</clustering>
</event>
<event>
 6    0  0.1555973E+002  0.1935398E+03  0.7546771E-02  0.1155307E+00
         21   -1    0    0  504  501  0.00000000000E+00  0.00000000000E+00  0.35994849947E+03  0.35994849947E+03  0.00000000000E+00 0. -1.
         21   -1    0    0  501  502 -0.00000000000E+00 -0.00000000000E+00 -0.60994053661E+03  0.60994053661E+03  0.00000000000E+00 0. -1.
         21    1    1    2  503  502  0.19643045476E+03  0.67680410167E+02 -0.54054759669E+03  0.57910039351E+03  0.00000000000E+00 0. -1.
         21    1    1    2  504  506 -0.23705789977E+02 -0.55804613231E+02  0.87151759937E+02  0.10616754964E+03  0.00000000000E+00 0. -1.
         21    1    1    2  505  503 -0.12235355107E+03  0.17136239537E+02  0.77227420058E+02  0.14569871850E+03  0.00000000000E+00 0. -1.
         21    1    1    2  506  505 -0.50371113722E+02 -0.29012036472E+02  0.12617637955E+03  0.13892237442E+03  0.00000000000E+00 0. -1.
<scales pt_clust_3="193.53982" pt_clust_4="120.66555" pt_clust_5="14000.00000" pt_clust_6="42.44266"></scales>
<clustering>
<clus scale="   42.443">  4  6 -1 -1</clus>
<clus scale="  120.666">  1  4  2 -1</clus>
<clus scale="  193.540">  2  3  1 -1</clus>
<clus scale="  120.666">  1  3  2 -1</clus>
</clustering>
</event>
<event>
 6    0  0.1555973E+002  0.2240010E+03  0.7546771E-02  0.1130935E+00
         21   -1    0    0  506  501  0.00000000000E+00  0.00000000000E+00  0.13813305447E+04  0.13813305447E+04  0.00000000000E+00 0. -1.
         21   -1    0    0  503  502 -0.00000000000E+00 -0.00000000000E+00 -0.11831918465E+03  0.11831918465E+03  0.00000000000E+00 0. -1.
         21    1    1    2  503  505 -0.15518683115E+03  0.16104366855E+03  0.16883488344E+02  0.22428345441E+03  0.00000000000E+00 0. -1.
         21    1    1    2  504  502  0.59501277748E+02 -0.89195684557E+02  0.58560951602E+03  0.59534425121E+03  0.00000000000E+00 0. -1.
         21    1    1    2  505  501  0.51617978985E+02 -0.40709641605E+02  0.12008626811E+03  0.13690289428E+03  0.00000000000E+00 0.  1.
         21    1    1    2  506  504  0.44067574413E+02 -0.31138342392E+02  0.54043208755E+03  0.54311912941E+03  0.00000000000E+00 0. -1.
<scales pt_clust_3="217.37997" pt_clust_4="38.34960" pt_clust_5="65.73957" pt_clust_6="38.34960"></scales>
<clustering>
<clus scale="   38.350">  4  6 -1 -1</clus>
<clus scale="   65.740">  1  5  2 -1</clus>
<clus scale="  217.380">  2  3  1 -1</clus>
<clus scale="   65.740">  1  3  2 -1</clus>
</clustering>
</event>
<event>
 6    0  0.1555973E+002  0.2854507E+03  0.7546771E-02  0.1092749E+00
         21   -1    0    0  505  501  0.00000000000E+00  0.00000000000E+00  0.50722668289E+03  0.50722668289E+03  0.00000000000E+00 0.  1.
         21   -1    0    0  501  502 -0.00000000000E+00 -0.00000000000E+00 -0.35141227188E+03  0.35141227188E+03  0.00000000000E+00 0.  1.
         21    1    1    2  503  506  0.10505569467E+03 -0.13328960499E+03  0.23089960013E+03  0.28656141248E+03  0.00000000000E+00 0.  1.
         21    1    1    2  504  503  0.41400446602E+02 -0.83077412061E+02  0.51154951987E+02  0.10598435020E+03  0.00000000000E+00 0. -1.
         21    1    1    2  505  504 -0.62685914493E+02 -0.49540744971E+02  0.84741204259E+02  0.11646836904E+03  0.00000000000E+00 0.  1.
         21    1    1    2  506  502 -0.83770226779E+02  0.26590776202E+03 -0.21098134537E+03  0.34962482305E+03  0.00000000000E+00 0.  1.
<scales pt_clust_3="58.57529" pt_clust_4="58.57529" pt_clust_5="79.89874" pt_clust_6="274.24221"></scales>
<clustering>
<clus scale="   58.575">  3  4 -1 -1</clus>
<clus scale="   79.899">  1  5  2 -1</clus>
<clus scale="  274.242">  2  6  1 -1</clus>
<clus scale="   79.899">  1  3  2 -1</clus>
</clustering>
</event>
<event>
 6    0  0.1555973E+002  0.1438700E+03  0.7546771E-02  0.1208214E+00
         21   -1    0    0  506  501  0.00000000000E+00  0.00000000000E+00  0.45497841491E+02  0.45497841491E+02  0.00000000000E+00 0.  1.
         21   -1    0    0  504  502 -0.00000000000E+00 -0.00000000000E+00 -0.32830624997E+04  0.32830624997E+04  0.00000000000E+00 0.  1.
         21    1    1    2  503  502 -0.17672193620E+02 -0.26346746009E+02 -0.20054559841E+04  0.20057068982E+04  0.00000000000E+00 0.  1.
         21    1    1    2  504  505  0.10523292078E+03  0.54525580619E+02 -0.10037545852E+04  0.10107275963E+04  0.00000000000E+00 0. -1.
         21    1    1    2  505  501  0.35181140655E+02  0.19070745146E+02 -0.15795971030E+03  0.16294991886E+03  0.00000000000E+00 0.  1.
         21    1    1    2  506  503 -0.12274186781E+03 -0.47249579756E+02 -0.70394378601E+02  0.14917592782E+03  0.00000000000E+00 0.  1.
<scales pt_clust_3="31.72471" pt_clust_4="30.78185" pt_clust_5="30.78185" pt_clust_6="133.76214"></scales>
<clustering>
<clus scale="   30.782">  4  5 -1 -1</clus>
<clus scale="   31.725">  2  3  1 -1</clus>
<clus scale="  133.762">  1  6  2 -1</clus>
<clus scale="  133.762">  1  3  2 -1</clus>
</clustering>
</event>
<event>
 6    0  0.1555973E+002  0.1141776E+03  0.7546771E-02  0.1253024E+00
         21   -1    0    0  504  501  0.00000000000E+00  0.00000000000E+00  0.61197358576E+03  0.61197358576E+03  0.00000000000E+00 0. -1.
         21   -1    0    0  505  502 -0.00000000000E+00 -0.00000000000E+00 -0.19973957256E+03  0.19973957256E+03  0.00000000000E+00 0. -1.
         21    1    1    2  503  506  0.21822603418E+02  0.77696302746E+02  0.12867483877E+03  0.15188862898E+03  0.00000000000E+00 0. -1.
         21    1    1    2  504  502 -0.48666155766E+02 -0.15466175380E+03  0.27800608600E+03  0.32183231139E+03  0.00000000000E+00 0. -1.
         21    1    1    2  505  503  0.81659375821E+02  0.21849314796E+02 -0.14540751542E+03  0.16819331662E+03  0.00000000000E+00 0. -1.
         21    1    1    2  506  501 -0.54815823473E+02  0.55116136254E+02  0.15096060385E+03  0.16979890133E+03  0.00000000000E+00 0.  1.
<scales pt_clust_3="114.17759" pt_clust_4="14000.00000" pt_clust_5="83.57272" pt_clust_6="77.73392"></scales>
<clustering>
<clus scale="   77.734">  1  6  2 -1</clus>
<clus scale="   83.573">  2  5  1 -1</clus>
<clus scale="  114.178">  2  3  1 -1</clus>
<clus scale="   77.734">  1  3  2 -1</clus>
</clustering>
</event>
<event>
 6    0  0.1555973E+002  0.1901295E+03  0.7546771E-02  0.1158345E+00
         21   -1    0    0  503  501  0.00000000000E+00  0.00000000000E+00  0.22164895288E+03  0.22164895288E+03  0.00000000000E+00 0. -1.
         21   -1    0    0  504  502 -0.00000000000E+00 -0.00000000000E+00 -0.52470062793E+03  0.52470062793E+03  0.00000000000E+00 0. -1.
         21    1    1    2  503  506  0.13473016327E+02  0.28142370238E+02  0.36047657802E+02  0.47675452851E+02  0.00000000000E+00 0. -1.
         21    1    1    2  504  505 -0.13437203268E+02 -0.72563061834E+02 -0.30398206753E+03  0.31281153072E+03  0.00000000000E+00 0. -1.
         21    1    1    2  505  501 -0.18751177645E+03  0.55624677065E+02 -0.49962109030E+01  0.19565207162E+03  0.00000000000E+00 0. -1.
         21    1    1    2  506  502  0.18747596339E+03 -0.11203985468E+02 -0.30121054420E+02  0.19021052563E+03  0.00000000000E+00 0. -1.
<scales pt_clust_3="31.20120" pt_clust_4="73.05726" pt_clust_5="190.12945" pt_clust_6="14000.00000"></scales>
<clustering>
<clus scale="   31.201">  1  3  2 -1</clus>
<clus scale="   73.057">  2  4  1 -1</clus>
<clus scale="  190.129">  1  5  2 -1</clus>
<clus scale="   31.201">  1  3  2 -1</clus>
</clustering>
</event>
<event>
 6    0  0.1555973E+002  0.1794793E+03  0.7546771E-02  0.1168308E+00
         21   -1    0    0  503  501  0.00000000000E+00  0.00000000000E+00  0.89251774658E+02  0.89251774658E+02  0.00000000000E+00 0. -1.
         21   -1    0    0  505  502 -0.00000000000E+00 -0.00000000000E+00 -0.99626909669E+03  0.99626909669E+03  0.00000000000E+00 0. -1.
         21    1    1    2  503  506 -0.12811267355E+03  0.93334141497E+02 -0.13812806581E+03  0.21024624053E+03  0.00000000000E+00 0. -1.
         21    1    1    2  504  501  0.76308298097E+02 -0.51284641618E+02 -0.52826928575E+02  0.10603657486E+03  0.00000000000E+00 0.  1.
         21    1    1    2  505  504  0.64254719333E+02 -0.84229594303E+02 -0.82821616000E+02  0.13447198069E+03  0.00000000000E+00 0. -1.
         21    1    1    2  506  502 -0.12450343876E+02  0.42180094424E+02 -0.63324071165E+03  0.63476607528E+03  0.00000000000E+00 0. -1.
<scales pt_clust_3="175.75851" pt_clust_4="33.86890" pt_clust_5="33.86890" pt_clust_6="43.97922"></scales>
<clustering>
<clus scale="   33.869">  4  5 -1 -1</clus>
<clus scale="   43.979">  2  6  1 -1</clus>
<clus scale="  175.759">  1  3  2 -1</clus>
<clus scale="  175.759">  1  3  2 -1</clus>
</clustering>
</event>
<event>
 6    0  0.1555973E+002  0.7063693E+02  0.7546771E-02  0.1357940E+00
         21   -1    0    0  504  501  0.00000000000E+00  0.00000000000E+00  0.60423386455E+03  0.60423386455E+03  0.00000000000E+00 0.  1.
         21   -1    0    0  505  502 -0.00000000000E+00 -0.00000000000E+00 -0.47855770845E+03  0.47855770845E+03  0.00000000000E+00 0.  1.
         21    1    1    2  503  506  0.36850490068E+02  0.15668250164E+02  0.68412146524E+02  0.79269631471E+02  0.00000000000E+00 0.  1.
         21    1    1    2  504  502 -0.15557216138E+02 -0.11829774962E+03  0.39452896291E+03  0.41217652422E+03  0.00000000000E+00 0.  1.
         21    1    1    2  505  503 -0.22059975637E+02  0.66845133955E+02 -0.45904692857E+03  0.46441252899E+03  0.00000000000E+00 0.  1.
         21    1    1    2  506  501  0.76670170648E+00  0.35784365504E+02  0.12178197523E+03  0.12693288832E+03  0.00000000000E+00 0. -1.
<scales pt_clust_3="42.60316" pt_clust_4="70.63693" pt_clust_5="14000.00000" pt_clust_6="35.79258"></scales>
<clustering>
<clus scale="   35.793">  1  6  2 -1</clus>
<clus scale="   42.603">  1  3  2 -1</clus>
<clus scale="   70.637">  1  4  2 -1</clus>
<clus scale="   35.793">  1  3  2 -1</clus>
</clustering>
</event>
<event>
 6    0  0.1555973E+002  0.3894780E+03  0.7546771E-02  0.1047485E+00
         21   -1    0    0  504  501  0.00000000000E+00  0.00000000000E+00  0.89490740676E+03  0.89490740676E+03  0.00000000000E+00 0. -1.
         21   -1    0    0  505  502 -0.00000000000E+00 -0.00000000000E+00 -0.22901021949E+03  0.22901021949E+03  0.00000000000E+00 0. -1.
         21    1    1    2  503  506 -0.52854834298E+02  0.29036418863E+03  0.31211443679E+03  0.42955839789E+03  0.00000000000E+00 0. -1.
         21    1    1    2  504  503 -0.25705271654E+02  0.69504603830E+02  0.15532425183E+03  0.17209670000E+03  0.00000000000E+00 0. -1.
         21    1    1    2  505  501 -0.36364512051E+02  0.21733736060E+02 -0.39643723355E+02  0.58020322485E+02  0.00000000000E+00 0. -1.
         21    1    1    2  506  502  0.11492461800E+03 -0.38160252852E+03  0.23810222200E+03  0.46424220588E+03  0.00000000000E+00 0. -1.
<scales pt_clust_3="44.06403" pt_clust_4="44.06403" pt_clust_5="42.36429" pt_clust_6="379.31572"></scales>
<clustering>
<clus scale="   42.364">  2  5  1 -1</clus>
<clus scale="   44.064">  3  4 -1 -1</clus>
<clus scale="  379.316">  2  6  1 -1</clus>
<clus scale="  389.478">  1  3  2 -1</clus>
</clustering>
</event>
<event>
 6    0  0.1555973E+002  0.1908100E+03  0.7546771E-02  0.1157733E+00
         21   -1    0    0  503  501  0.00000000000E+00  0.00000000000E+00  0.31436059980E+03  0.31436059980E+03  0.00000000000E+00 0. -1.
         21   -1    0    0  504  502 -0.00000000000E+00 -0.00000000000E+00 -0.13258067449E+04  0.13258067449E+04  0.00000000000E+00 0. -1.
         21    1    1    2  503  506 -0.21423827063E+03 -0.69373391966E+02  0.14999106881E+03  0.27056981509E+03  0.00000000000E+00 0. -1.
         21    1    1    2  504  505  0.10407043038E+02  0.82726619776E+02 -0.30407582521E+01  0.83434084013E+02  0.00000000000E+00 0. -1.
         21    1    1    2  505  501  0.31568139667E+02  0.70945141724E+02  0.29364940271E+02  0.83018433456E+02  0.00000000000E+00 0. -1.
         21    1    1    2  506  502  0.17226308793E+03 -0.84298369534E+02 -0.11877613959E+04  0.12031450121E+04  0.00000000000E+00 0. -1.
<scales pt_clust_3="190.80997" pt_clust_4="164.35777" pt_clust_5="39.04024" pt_clust_6="14000.00000"></scales>
<clustering>
<clus scale="   39.040">  4  5 -1 -1</clus>
<clus scale="  164.358">  1  4  2 -1</clus>
<clus scale="  190.810">  1  3  2 -1</clus>
<clus scale="  164.358">  1  3  2 -1</clus>
</clustering>
</event>
<event>
 6    0  0.1555973E+002  0.1116498E+03  0.7546771E-02  0.1257545E+00
         21   -1    0    0  506  501  0.00000000000E+00  0.00000000000E+00  0.91824192938E+02  0.91824192938E+02  0.00000000000E+00 0.  1.
         21   -1    0    0  505  502 -0.00000000000E+00 -0.00000000000E+00 -0.39611000277E+03  0.39611000277E+03  0.00000000000E+00 0.  1.
         21    1    1    2  503  501  0.18648613621E+02  0.27154240660E+02  0.98971572777E+01  0.34395890714E+02  0.00000000000E+00 0.  1.
         21    1    1    2  504  503 -0.11208943359E+02 -0.31360026915E+02 -0.10166349575E+02  0.34820200502E+02  0.00000000000E+00 0.  1.
         21    1    1    2  505  504  0.44001566488E+02 -0.79437863080E+02  0.84333081877E+01  0.91201056085E+02  0.00000000000E+00 0.  1.
         21    1    1    2  506  502 -0.51441236750E+02  0.83643649334E+02 -0.31244992572E+03  0.32751704841E+03  0.00000000000E+00 0.  1.
<scales pt_clust_3="32.94121" pt_clust_4="30.44121" pt_clust_5="30.44121" pt_clust_6="99.69377"></scales>
<clustering>
<clus scale="   30.441">  4  5 -1 -1</clus>
<clus scale="   32.941">  1  3  2 -1</clus>
<clus scale="   99.694">  2  6  1 -1</clus>
<clus scale="   32.941">  1  3  2 -1</clus>
</clustering>
</event>
<event>
 6    0  0.1555973E+002  0.3310389E+03  0.7546771E-02  0.1070678E+00
         21   -1    0    0  502  501  0.00000000000E+00  0.00000000000E+00  0.38911807474E+03  0.38911807474E+03  0.00000000000E+00 0. -1.
         21   -1    0    0  504  502 -0.00000000000E+00 -0.00000000000E+00 -0.48127504817E+03  0.48127504817E+03  0.00000000000E+00 0. -1.
         21    1    1    2  503  501  0.19757114664E+02  0.31855645194E+02  0.28890298970E+02  0.47326262108E+02  0.00000000000E+00 0. -1.
         21    1    1    2  504  506 -0.12836824724E+02 -0.43039059106E+02 -0.14230255659E+03  0.14922185594E+03  0.00000000000E+00 0.  1.
         21    1    1    2  505  503  0.31853911923E+03 -0.64210637150E+02  0.79980945682E+02  0.33464477894E+03  0.00000000000E+00 0. -1.
         21    1    1    2  506  505 -0.32545940917E+03  0.75394051062E+02 -0.58725661490E+02  0.33920022593E+03  0.00000000000E+00 0. -1.
<scales pt_clust_3="37.48501" pt_clust_4="44.55620" pt_clust_5="14000.00000" pt_clust_6="331.03889"></scales>
<clustering>
<clus scale="   37.485">  1  3  2 -1</clus>
<clus scale="   44.556">  2  4  1 -1</clus>
<clus scale="  331.039">  2  6  1 -1</clus>
<clus scale="   37.485">  1  3  2 -1</clus>
</clustering>
</event>
<event>
 6    0  0.1555973E+002  0.8426281E+02  0.7546771E-02  0.1317372E+00
         21   -1    0    0  506  501  0.00000000000E+00  0.00000000000E+00  0.27367660386E+03  0.27367660386E+03  0.00000000000E+00 0.  1.
         21   -1    0    0  503  502 -0.00000000000E+00 -0.00000000000E+00 -0.20566442731E+03  0.20566442731E+03  0.00000000000E+00 0.  1.
         21    1    1    2  503  505  0.59240310623E+01  0.45325103146E+02 -0.12540794692E+03  0.13347888324E+03  0.00000000000E+00 0.  1.
         21    1    1    2  504  502 -0.53980630006E+02  0.32382543616E+02 -0.26520846063E+02  0.68307340914E+02  0.00000000000E+00 0.  1.
         21    1    1    2  505  501  0.51074421844E+02 -0.11050616822E+03  0.21070880162E+03  0.24334832825E+03  0.00000000000E+00 0.  1.
         21    1    1    2  506  504 -0.30178229001E+01  0.32798521463E+02  0.92321679184E+01  0.34206478768E+02  0.00000000000E+00 0. -1.
<scales pt_clust_3="46.22537" pt_clust_4="84.26281" pt_clust_5="14000.00000" pt_clust_6="32.93707"></scales>
<clustering>
<clus scale="   32.937">  1  6  2 -1</clus>
<clus scale="   46.225">  2  3  1 -1</clus>
<clus scale="   84.263">  2  4  1 -1</clus>
<clus scale="   32.937">  1  3  2 -1</clus>
</clustering>
</event>
<event>
 6    0  0.1555973E+002  0.9021733E+02  0.7546771E-02  0.1302326E+00
         21   -1    0    0  503  501  0.00000000000E+00  0.00000000000E+00  0.80725911499E+03  0.80725911499E+03  0.00000000000E+00 0. -1.
         21   -1    0    0  505  502 -0.00000000000E+00 -0.00000000000E+00 -0.36381786105E+03  0.36381786105E+03  0.00000000000E+00 0. -1.
         21    1    1    2  503  504  0.41144436586E+02 -0.15907337842E+02  0.12442651581E+03  0.13201464274E+03  0.00000000000E+00 0. -1.
         21    1    1    2  504  502 -0.66828114365E+02  0.13769316657E+01 -0.34221000238E+03  0.34867689705E+03  0.00000000000E+00 0. -1.
         21    1    1    2  505  506 -0.33679641358E+02  0.63816758166E+02  0.96928950858E+02  0.12083922533E+03  0.00000000000E+00 0. -1.
         21    1    1    2  506  501  0.59363319137E+02 -0.49286351990E+02  0.56429578965E+03  0.56954621091E+03  0.00000000000E+00 0. -1.
<scales pt_clust_3="44.11245" pt_clust_4="66.64490" pt_clust_5="14000.00000" pt_clust_6="90.21733"></scales>
<clustering>
<clus scale="   44.112">  1  3  2 -1</clus>
<clus scale="   66.645">  2  4  1 -1</clus>
<clus scale="   90.217">  1  6  2 -1</clus>
<clus scale="   44.112">  1  3  2 -1</clus>
</clustering>
</event>
<event>
 6    0  0.1555973E+002  0.8923294E+02  0.7546771E-02  0.1304720E+00
         21   -1    0    0  505  501  0.00000000000E+00  0.00000000000E+00  0.10852860932E+03  0.10852860932E+03  0.00000000000E+00 0. -1.
         21   -1    0    0  506  502 -0.00000000000E+00 -0.00000000000E+00 -0.52799623815E+03  0.52799623815E+03  0.00000000000E+00 0. -1.
         21    1    1    2  503  501  0.36492184361E+02 -0.74606694832E+02  0.19863037088E+02  0.85395425379E+02  0.00000000000E+00 0. -1.
         21    1    1    2  504  502 -0.70101396598E+02  0.36520004228E+02 -0.28528810178E+03  0.29603583826E+03  0.00000000000E+00 0. -1.
         21    1    1    2  505  504 -0.96553858240E+01  0.11431286963E+03 -0.74939321997E+02  0.13702759072E+03  0.00000000000E+00 0. -1.
         21    1    1    2  506  503  0.43264598061E+02 -0.76226179021E+02 -0.79103242139E+02  0.11806599312E+03  0.00000000000E+00 0.  1.
<scales pt_clust_3="89.23294" pt_clust_4="79.04376" pt_clust_5="14000.00000" pt_clust_6="62.67362"></scales>
<clustering>
<clus scale="   79.044">  2  4  1 -1</clus>
<clus scale="   62.674">  2  6  1 -1</clus>
<clus scale="   89.233">  1  3  2 -1</clus>
<clus scale="   89.233">  1  3  2 -1</clus>
</clustering>
</event>
<event>
 6    0  0.1555973E+002  0.1262558E+03  0.7546771E-02  0.1233120E+00
         21   -1    0    0  502  501  0.00000000000E+00  0.00000000000E+00  0.11346951289E+03  0.11346951289E+03  0.00000000000E+00 0. -1.
         21   -1    0    0  505  502 -0.00000000000E+00 -0.00000000000E+00 -0.18904800069E+04  0.18904800069E+04  0.00000000000E+00 0.  1.
         21    1    1    2  503  506  0.11996055912E+02 -0.10126099488E+03 -0.35048309230E+03  0.36501519480E+03  0.00000000000E+00 0.  1.
         21    1    1    2  504  501  0.18323456918E+02  0.37845188581E+02  0.49297743232E+00  0.42050569543E+02  0.00000000000E+00 0. -1.
         21    1    1    2  505  503 -0.60754349520E+02 -0.10191527330E+02 -0.14925011323E+04  0.14937719331E+04  0.00000000000E+00 0.  1.
         21    1    1    2  506  504  0.30434836689E+02  0.73607333631E+02  0.65480753234E+02  0.10311182227E+03  0.00000000000E+00 0. -1.
<scales pt_clust_3="118.40598" pt_clust_4="31.84107" pt_clust_5="61.60323" pt_clust_6="31.84107"></scales>
<clustering>
<clus scale="   31.841">  4  6 -1 -1</clus>
<clus scale="   61.603">  2  5  1 -1</clus>
<clus scale="  118.406">  2  3  1 -1</clus>
<clus scale="  126.256">  1  3  2 -1</clus>
</clustering>
</event>
<event>
 6    0  0.1555973E+002  0.1462417E+03  0.7546771E-02  0.1205169E+00
         21   -1    0    0  506  501  0.00000000000E+00  0.00000000000E+00  0.17094232163E+03  0.17094232163E+03  0.00000000000E+00 0. -1.
         21   -1    0    0  503  502 -0.00000000000E+00 -0.00000000000E+00 -0.43360573251E+03  0.43360573251E+03  0.00000000000E+00 0.  1.
         21    1    1    2  503  501  0.86421036103E+02 -0.39267736897E+02  0.21235222610E+02  0.97270166657E+02  0.00000000000E+00 0. -1.
         21    1    1    2  504  505  0.10310989394E+03  0.43937528092E+02 -0.14364108409E+03  0.18219472451E+03  0.00000000000E+00 0. -1.
         21    1    1    2  505  502  0.35185077328E+02 -0.44152365066E+02 -0.62056490522E+02  0.83895345660E+02  0.00000000000E+00 0. -1.
         21    1    1    2  506  504 -0.22471600737E+03  0.39482573871E+02 -0.78201058877E+02  0.24118781731E+03  0.00000000000E+00 0.  1.
<scales pt_clust_3="100.26278" pt_clust_4="14000.00000" pt_clust_5="56.45725" pt_clust_6="146.24173"></scales>
<clustering>
<clus scale="   56.457">  2  5  1 -1</clus>
<clus scale="  100.263">  1  3  2 -1</clus>
<clus scale="  146.242">  1  6  2 -1</clus>
<clus scale="  100.263">  1  3  2 -1</clus>
</clustering>
</event>
<event>
 6    0  0.1555973E+002  0.1953238E+03  0.7546771E-02  0.1153745E+00
         21   -1    0    0  503  501  0.00000000000E+00  0.00000000000E+00  0.16645952687E+04  0.16645952687E+04  0.00000000000E+00 0.  1.
         21   -1    0    0  506  502 -0.00000000000E+00 -0.00000000000E+00 -0.71634197183E+02  0.71634197183E+02  0.00000000000E+00 0. -1.
         21    1    1    2  503  505 -0.92204034179E+01  0.53567228976E+02  0.25158686623E+03  0.25739155992E+03  0.00000000000E+00 0. -1.
         21    1    1    2  504  502  0.26948593882E+01 -0.20564211828E+03  0.12908206783E+03  0.24281293893E+03  0.00000000000E+00 0. -1.
         21    1    1    2  505  504 -0.55233383719E+02  0.12280477100E+03  0.10669794378E+04  0.10754426340E+04  0.00000000000E+00 0.  1.
         21    1    1    2  506  501  0.61758927748E+02  0.29270118301E+02  0.14531269963E+03  0.16058233295E+03  0.00000000000E+00 0. -1.
<scales pt_clust_3="32.19964" pt_clust_4="188.63426" pt_clust_5="32.19964" pt_clust_6="68.34402"></scales>
<clustering>
<clus scale="   32.200">  3  5 -1 -1</clus>
<clus scale="   68.344">  2  6  1 -1</clus>
<clus scale="  188.634">  2  4  1 -1</clus>
<clus scale="  195.324">  1  3  2 -1</clus>
</clustering>
</event>
<event>
 6    0  0.1555973E+002  0.8013955E+02  0.7546771E-02  0.1328656E+00
         21   -1    0    0  504  501  0.00000000000E+00  0.00000000000E+00  0.39935855880E+03  0.39935855880E+03  0.00000000000E+00 0. -1.
         21   -1    0    0  505  502 -0.00000000000E+00 -0.00000000000E+00 -0.74603357742E+02  0.74603357742E+02  0.00000000000E+00 0. -1.
         21    1    1    2  503  501  0.10378453553E+03  0.35903138834E+02  0.86524152091E+02  0.13980949212E+03  0.00000000000E+00 0. -1.
         21    1    1    2  504  506 -0.54103542494E+02 -0.47109176726E+02  0.13118447486E+03  0.14951867538E+03  0.00000000000E+00 0. -1.
         21    1    1    2  505  503  0.19313357155E+02 -0.52022371375E+02  0.52068536448E+02  0.76095107438E+02  0.00000000000E+00 0. -1.
         21    1    1    2  506  502 -0.68994350190E+02  0.63228409267E+02  0.54978037661E+02  0.10853864161E+03  0.00000000000E+00 0. -1.
<scales pt_clust_3="80.13955" pt_clust_4="14000.00000" pt_clust_5="55.49174" pt_clust_6="73.25806"></scales>
<clustering>
<clus scale="   55.492">  2  5  1 -1</clus>
<clus scale="   73.258">  2  6  1 -1</clus>
<clus scale="   80.140">  2  3  1 -1</clus>
<clus scale="   80.140">  1  3  2 -1</clus>
</clustering>
</event>
<event>
 6    0  0.1555973E+002  0.1610388E+03  0.7546771E-02  0.1187529E+00
         21   -1    0    0  506  501  0.00000000000E+00  0.00000000000E+00  0.44118953647E+03  0.44118953647E+03  0.00000000000E+00 0.  1.
         21   -1    0    0  504  502 -0.00000000000E+00 -0.00000000000E+00 -0.21966530204E+03  0.21966530204E+03  0.00000000000E+00 0.  1.
         21    1    1    2  503  502  0.44207170101E+02  0.17631626481E+02 -0.14417286461E+03  0.15182543604E+03  0.00000000000E+00 0.  1.
         21    1    1    2  504  505 -0.37917848135E+02 -0.13146900251E+02  0.59263378623E+02  0.71573404553E+02  0.00000000000E+00 0.  1.
         21    1    1    2  505  501 -0.10544850551E+03  0.71319752045E+02  0.28320011932E+03  0.31049670196E+03  0.00000000000E+00 0.  1.
         21    1    1    2  506  503  0.99159183543E+02 -0.75804478275E+02  0.23233601094E+02  0.12695929595E+03  0.00000000000E+00 0.  1.
<scales pt_clust_3="47.59357" pt_clust_4="38.73077" pt_clust_5="38.73077" pt_clust_6="145.51692"></scales>
<clustering>
<clus scale="   38.731">  4  5 -1 -1</clus>
<clus scale="   47.594">  2  3  1 -1</clus>
<clus scale="  145.517">  2  6  1 -1</clus>
<clus scale="  161.039">  1  3  2 -1</clus>
</clustering>
</event>
<event>
 6    0  0.1555973E+002  0.1208475E+03  0.7546771E-02  0.1241705E+00
         21   -1    0    0  503  501  0.00000000000E+00  0.00000000000E+00  0.59170731130E+03  0.59170731130E+03  0.00000000000E+00 0.  1.
         21   -1    0    0  504  502 -0.00000000000E+00 -0.00000000000E+00 -0.38883323457E+02  0.38883323457E+02  0.00000000000E+00 0.  1.
         21    1    1    2  503  502  0.97078670462E+02  0.94927200413E+02  0.24155564895E+03  0.27710029444E+03  0.00000000000E+00 0.  1.
         21    1    1    2  504  506 -0.41357303170E+02 -0.49306990338E+02  0.61875712300E+02  0.89276030346E+02  0.00000000000E+00 0.  1.
         21    1    1    2  505  501 -0.16849386538E+02 -0.40656136001E+02  0.17100171285E+03  0.17657408932E+03  0.00000000000E+00 0.  1.
         21    1    1    2  506  505 -0.38871980754E+02 -0.49640740743E+01  0.78390913740E+02  0.87640220653E+02  0.00000000000E+00 0. -1.
<scales pt_clust_3="111.18259" pt_clust_4="36.95330" pt_clust_5="44.00935" pt_clust_6="36.95330"></scales>
<clustering>
<clus scale="   36.953">  4  6 -1 -1</clus>
<clus scale="   44.009">  1  5  2 -1</clus>
<clus scale="  111.183">  1  3  2 -1</clus>
<clus scale="   44.009">  1  3  2 -1</clus>
</clustering>
</event>
<event>
 6    0  0.1555973E+002  0.2258964E+03  0.7546771E-02  0.1129562E+00
         21   -1    0    0  504  501  0.00000000000E+00  0.00000000000E+00  0.86291031893E+03  0.86291031893E+03  0.00000000000E+00 0. -1.
         21   -1    0    0  506  502 -0.00000000000E+00 -0.00000000000E+00 -0.18817226611E+03  0.18817226611E+03  0.00000000000E+00 0. -1.
         21    1    1    2  503  501  0.45295246425E+02 -0.10783226198E+02  0.16570431548E+03  0.17212163572E+03  0.00000000000E+00 0. -1.
         21    1    1    2  504  502 -0.27705925800E+03 -0.98661883455E+02  0.11844838833E+03  0.31705838641E+03  0.00000000000E+00 0. -1.
         21    1    1    2  505  503  0.13172489525E+03  0.14601860709E+03  0.40898699909E+03  0.45380970359E+03  0.00000000000E+00 0. -1.
         21    1    1    2  506  505  0.10003911633E+03 -0.36573497438E+02 -0.18401650075E+02  0.10809285932E+03  0.00000000000E+00 0. -1.
<scales pt_clust_3="46.56111" pt_clust_4="225.89637" pt_clust_5="14000.00000" pt_clust_6="109.50381"></scales>
<clustering>
<clus scale="   46.561">  1  3  2 -1</clus>
<clus scale="  109.504">  2  6  1 -1</clus>
<clus scale="  225.896">  2  4  1 -1</clus>
<clus scale="   46.561">  1  3  2 -1</clus>
</clustering>
</event>
<event>
 6    0  0.1555973E+002  0.1224906E+03  0.7546771E-02  0.1239044E+00
         21   -1    0    0  505  501  0.00000000000E+00  0.00000000000E+00  0.75941502670E+03  0.75941502670E+03  0.00000000000E+00 0. -1.
         21   -1    0    0  506  502 -0.00000000000E+00 -0.00000000000E+00 -0.73494610177E+03  0.73494610177E+03  0.00000000000E+00 0. -1.
         21    1    1    2  503  502  0.31217862214E+02 -0.28469665820E+02  0.72929147490E+02  0.84283671886E+02  0.00000000000E+00 0. -1.
         21    1    1    2  504  501 -0.12426051235E+03  0.34261909947E+02  0.58997100893E+03  0.60388769219E+03  0.00000000000E+00 0. -1.
         21    1    1    2  505  503  0.55127069642E+02  0.16462603178E+01  0.74233301954E+02  0.92478576435E+02  0.00000000000E+00 0. -1.
         21    1    1    2  506  504  0.37915580499E+02 -0.74385044452E+01 -0.71266453344E+03  0.71371118796E+03  0.00000000000E+00 0. -1.
<scales pt_clust_3="32.90267" pt_clust_4="116.57954" pt_clust_5="32.90267" pt_clust_6="38.63836"></scales>
<clustering>
<clus scale="   32.903">  3  5 -1 -1</clus>
<clus scale="   38.638">  2  6  1 -1</clus>
<clus scale="  116.580">  1  4  2 -1</clus>
<clus scale="  116.580">  1  3  2 -1</clus>
</clustering>
</event>
<event>
 6    0  0.1555973E+002  0.1419110E+03  0.7546771E-02  0.1210780E+00
         21   -1    0    0  504  501  0.00000000000E+00  0.00000000000E+00  0.48531968090E+03  0.48531968090E+03  0.00000000000E+00 0.  1.
         21   -1    0    0  503  502 -0.00000000000E+00 -0.00000000000E+00 -0.27431849993E+03  0.27431849993E+03  0.00000000000E+00 0.  1.
         21    1    1    2  503  505 -0.27376219874E+02 -0.24533883746E+02 -0.22493265555E+02  0.43096587586E+02  0.00000000000E+00 0.  1.
         21    1    1    2  504  502 -0.42507423281E+02  0.73135479521E+02 -0.19396191153E+03  0.21160553519E+03  0.00000000000E+00 0.  1.
         21    1    1    2  505  506 -0.55845022037E+02  0.25717891114E+02  0.95199310127E+01  0.62214994142E+02  0.00000000000E+00 0. -1.
         21    1    1    2  506  501  0.12572866519E+03 -0.74319486889E+02  0.41793642704E+03  0.44272106391E+03  0.00000000000E+00 0.  1.
<scales pt_clust_3="36.76097" pt_clust_4="141.91099" pt_clust_5="63.18269" pt_clust_6="14000.00000"></scales>
<clustering>
<clus scale="   36.761">  2  3  1 -1</clus>
<clus scale="   63.183">  2  5  1 -1</clus>
<clus scale="  141.911">  2  4  1 -1</clus>
<clus scale="  141.911">  1  3  2 -1</clus>
</clustering>
</event>
<event>
 6    0  0.1555973E+002  0.6148932E+02  0.7546771E-02  0.1391686E+00
         21   -1    0    0  504  501  0.00000000000E+00  0.00000000000E+00  0.44520657017E+03  0.44520657017E+03  0.00000000000E+00 0.  1.
         21   -1    0    0  506  502 -0.00000000000E+00 -0.00000000000E+00 -0.10597967731E+04  0.10597967731E+04  0.00000000000E+00 0.  1.
         21    1    1    2  503  502  0.54825774899E+02 -0.27690642957E+02 -0.10324837603E+04  0.10343091185E+04  0.00000000000E+00 0.  1.
         21    1    1    2  504  505 -0.49117410656E+02 -0.15669417137E+02  0.38409981954E+02  0.64291347603E+02  0.00000000000E+00 0.  1.
         21    1    1    2  505  503  0.48032790061E+02 -0.28183743320E+02  0.13351801857E+03  0.14466697477E+03  0.00000000000E+00 0.  1.
         21    1    1    2  506  501 -0.53741154304E+02  0.71543803414E+02  0.24596555683E+03  0.26173590243E+03  0.00000000000E+00 0.  1.
<scales pt_clust_3="61.48932" pt_clust_4="51.55629" pt_clust_5="45.59103" pt_clust_6="14000.00000"></scales>
<clustering>
<clus scale="   51.556">  1  4  2 -1</clus>
<clus scale="   45.591">  1  5  2 -1</clus>
<clus scale="   61.489">  2  3  1 -1</clus>
<clus scale="   51.556">  1  3  2 -1</clus>
</clustering>
</event>
<event>
 6    0  0.1555973E+002  0.1420827E+03  0.7546771E-02  0.1210554E+00
         21   -1    0    0  506  501  0.00000000000E+00  0.00000000000E+00  0.35464140935E+02  0.35464140935E+02  0.00000000000E+00 0.  1.
         21   -1    0    0  504  502 -0.00000000000E+00 -0.00000000000E+00 -0.30819838448E+04  0.30819838448E+04  0.00000000000E+00 0. -1.
         21    1    1    2  503  505 -0.53372033923E+02 -0.36113778970E+02 -0.61835727693E+02  0.89310896625E+02  0.00000000000E+00 0.  1.
         21    1    1    2  504  501 -0.31896666239E+02 -0.21994160602E+02 -0.13947182685E+03  0.14475334505E+03  0.00000000000E+00 0. -1.
         21    1    1    2  505  502  0.10870658313E+03  0.83915159162E+02 -0.28452097004E+04  0.28485219175E+04  0.00000000000E+00 0. -1.
         21    1    1    2  506  503 -0.23437882970E+02 -0.25807219590E+02 -0.24488489273E-02  0.34861826502E+02  0.00000000000E+00 0.  1.
<scales pt_clust_3="31.72894" pt_clust_4="38.74455" pt_clust_5="135.37562" pt_clust_6="31.72894"></scales>
<clustering>
<clus scale="   31.729">  3  6 -1 -1</clus>
<clus scale="   38.745">  1  4  2 -1</clus>
<clus scale="  135.376">  2  5  1 -1</clus>
<clus scale="   38.745">  1  3  2 -1</clus>
</clustering>
</event>
<event>
 6    0  0.1626348E+002  0.9943742E+02  0.7546771E-02  0.1281483E+00
         21   -1    0    0  504  501  0.00000000000E+00  0.00000000000E+00  0.73584706291E+03  0.73584706291E+03  0.00000000000E+00 0. -1.
         21   -1    0    0  505  502 -0.00000000000E+00 -0.00000000000E+00 -0.12509913971E+04  0.12509913971E+04  0.00000000000E+00 0. -1.
         21    1    1    2  503  501 -0.16522604231E+02  0.41891051852E+02  0.42768187521E+02  0.62104545242E+02  0.00000000000E+00 0.  1.
         21    1    1    2  504  506  0.86157790861E+01 -0.41154726733E+02  0.63512831642E+02  0.76169698470E+02  0.00000000000E+00 0. -1.
         21    1    1    2  505  503  0.60141598668E+01  0.99254536028E+02 -0.12288979674E+04  0.12329143715E+04  0.00000000000E+00 0. -1.
         21    1    1    2  506  502  0.18926652777E+01 -0.99990861146E+02  0.60747261411E+03  0.61564984478E+03  0.00000000000E+00 0. -1.
<scales pt_clust_3="41.77233" pt_clust_4="42.04692" pt_clust_5="99.43742" pt_clust_6="14000.00000"></scales>
<clustering>
<clus scale="   42.047">  1  4  2 -1</clus>
<clus scale="   41.772">  1  3  2 -1</clus>
<clus scale="   99.437">  2  5  1 -1</clus>
<clus scale="   42.047">  1  3  2 -1</clus>
</clustering>
</event>
<event>
 6    0  0.1555973E+002  0.7848725E+02  0.7546771E-02  0.1333400E+00
         21   -1    0    0  504  501  0.00000000000E+00  0.00000000000E+00  0.14617416101E+03  0.14617416101E+03  0.00000000000E+00 0.  1.
         21   -1    0    0  506  502 -0.00000000000E+00 -0.00000000000E+00 -0.58013153812E+03  0.58013153812E+03  0.00000000000E+00 0.  1.
         21    1    1    2  503  501  0.32246800278E+02 -0.13785157722E+02  0.32803229657E+02  0.48020189271E+02  0.00000000000E+00 0.  1.
         21    1    1    2  504  502 -0.88404297825E+02  0.98654906346E+02  0.36249661100E+02  0.13733953673E+03  0.00000000000E+00 0.  1.
         21    1    1    2  505  503 -0.67389877043E+01 -0.40885280730E+02 -0.10845476983E+02  0.42832750398E+02  0.00000000000E+00 0.  1.
         21    1    1    2  506  505  0.62896485251E+02 -0.43984467894E+02 -0.49216479088E+03  0.49811322273E+03  0.00000000000E+00 0.  1.
<scales pt_clust_3="35.06974" pt_clust_4="78.48725" pt_clust_5="43.01025" pt_clust_6="14000.00000"></scales>
<clustering>
<clus scale="   35.070">  1  3  2 -1</clus>
<clus scale="   43.010">  1  5  2 -1</clus>
<clus scale="   78.487">  1  4  2 -1</clus>
<clus scale="   35.070">  1  3  2 -1</clus>
</clustering>
</event>
<event>
 6    0  0.1555973E+002  0.1143760E+03  0.7546771E-02  0.1252674E+00
         21   -1    0    0  503  501  0.00000000000E+00  0.00000000000E+00  0.85684505878E+03  0.85684505878E+03  0.00000000000E+00 0. -1.
         21   -1    0    0  504  502 -0.00000000000E+00 -0.00000000000E+00 -0.15593434520E+03  0.15593434520E+03  0.00000000000E+00 0. -1.
         21    1    1    2  503  505  0.13702565229E+03  0.70238992001E+02  0.13072428866E+03  0.20198610107E+03  0.00000000000E+00 0. -1.
         21    1    1    2  504  506 -0.22439392302E+02  0.20966263655E+02 -0.10869772774E+03  0.11295267396E+03  0.00000000000E+00 0. -1.
         21    1    1    2  505  502 -0.24615152263E+02 -0.29532884096E+02  0.76031095063E+02  0.85198734618E+02  0.00000000000E+00 0. -1.
         21    1    1    2  506  501 -0.89971107720E+02 -0.61672371560E+02  0.60285305759E+03  0.61264189433E+03  0.00000000000E+00 0. -1.
<scales pt_clust_3="114.37601" pt_clust_4="30.71010" pt_clust_5="38.39597" pt_clust_6="14000.00000"></scales>
<clustering>
<clus scale="   30.710">  2  4  1 -1</clus>
<clus scale="   38.396">  2  5  1 -1</clus>
<clus scale="  114.376">  2  3  1 -1</clus>
<clus scale="  114.376">  1  3  2 -1</clus>
</clustering>
</event>
<event>
 6    0  0.1555973E+002  0.8570688E+02  0.7546771E-02  0.1313594E+00
         21   -1    0    0  505  501  0.00000000000E+00  0.00000000000E+00  0.38253328930E+02  0.38253328930E+02  0.00000000000E+00 0.  1.
         21   -1    0    0  503  502 -0.00000000000E+00 -0.00000000000E+00 -0.88421983231E+03  0.88421983231E+03  0.00000000000E+00 0.  1.
         21    1    1    2  503  501 -0.33717444404E+02 -0.14184627119E+03 -0.26983041945E+03  0.30670129763E+03  0.00000000000E+00 0.  1.
         21    1    1    2  504  506  0.31281381166E+02  0.41717686154E+02 -0.13816259603E+03  0.14767461897E+03  0.00000000000E+00 0.  1.
         21    1    1    2  505  504  0.10649873431E+02  0.45332802050E+02 -0.27874620702E+02  0.54272250967E+02  0.00000000000E+00 0.  1.
         21    1    1    2  506  502 -0.82138101924E+01  0.54795782986E+02 -0.41009886720E+03  0.41382499368E+03  0.00000000000E+00 0.  1.
<scales pt_clust_3="14000.00000" pt_clust_4="85.70688" pt_clust_5="46.56697" pt_clust_6="58.63834"></scales>
<clustering>
<clus scale="   46.567">  1  5  2 -1</clus>
<clus scale="   58.638">  2  6  1 -1</clus>
<clus scale="   85.707">  2  4  1 -1</clus>
<clus scale="   46.567">  1  3  2 -1</clus>
</clustering>
</event>
<event>
 6    0  0.1555973E+002  0.8332335E+02  0.7546771E-02  0.1319876E+00
         21   -1    0    0  504  501  0.00000000000E+00  0.00000000000E+00  0.18184236165E+03  0.18184236165E+03  0.00000000000E+00 0. -1.
         21   -1    0    0  506  502 -0.00000000000E+00 -0.00000000000E+00 -0.13514038219E+03  0.13514038219E+03  0.00000000000E+00 0. -1.
         21    1    1    2  503  505 -0.96184919376E+01  0.76627813006E+02  0.38684307313E+02  0.86375996351E+02  0.00000000000E+00 0. -1.
         21    1    1    2  504  502  0.94253825109E+02 -0.56577459778E+02  0.31921802063E+02  0.11447180417E+03  0.00000000000E+00 0. -1.
         21    1    1    2  505  501 -0.35700522649E+02  0.13744816506E+02  0.19087283632E+02  0.42752446651E+02  0.00000000000E+00 0. -1.
         21    1    1    2  506  503 -0.48934810522E+02 -0.33795169735E+02 -0.42991413550E+02  0.73382496668E+02  0.00000000000E+00 0. -1.
<scales pt_clust_3="83.32335" pt_clust_4="14000.00000" pt_clust_5="38.25503" pt_clust_6="61.72372"></scales>
<clustering>
<clus scale="   38.255">  1  5  2 -1</clus>
<clus scale="   61.724">  2  6  1 -1</clus>
<clus scale="   83.323">  2  3  1 -1</clus>
<clus scale="   38.255">  1  3  2 -1</clus>
</clustering>
</event>
<event>
 6    0  0.1555973E+002  0.1111885E+03  0.7546771E-02  0.1258385E+00
         21   -1    0    0  504  501  0.00000000000E+00  0.00000000000E+00  0.15637808961E+03  0.15637808961E+03  0.00000000000E+00 0.  1.
         21   -1    0    0  505  502 -0.00000000000E+00 -0.00000000000E+00 -0.46894005800E+03  0.46894005800E+03  0.00000000000E+00 0. -1.
         21    1    1    2  503  502 -0.88548509810E+02 -0.42114360282E+02 -0.40272606427E+03  0.41449094172E+03  0.00000000000E+00 0. -1.
         21    1    1    2  504  506  0.83658207820E+02  0.33157848264E+02  0.54212635626E+02  0.10505783407E+03  0.00000000000E+00 0.  1.
         21    1    1    2  505  501 -0.31408091018E+02 -0.26305611836E+02  0.36925395371E+02  0.55153768854E+02  0.00000000000E+00 0.  1.
         21    1    1    2  506  503  0.36298393008E+02  0.35262123854E+02 -0.97393511822E+00  0.50615602963E+02  0.00000000000E+00 0.  1.
<scales pt_clust_3="100.16932" pt_clust_4="36.19001" pt_clust_5="40.96893" pt_clust_6="36.19001"></scales>
<clustering>
<clus scale="   36.190">  4  6 -1 -1</clus>
<clus scale="   40.969">  1  5  2 -1</clus>
<clus scale="  100.169">  2  3  1 -1</clus>
<clus scale="   40.969">  1  3  2 -1</clus>
</clustering>
</event>
<event>
 6    0  0.1555973E+002  0.1419672E+03  0.7546771E-02  0.1210706E+00
         21   -1    0    0  504  501  0.00000000000E+00  0.00000000000E+00  0.48413929248E+03  0.48413929248E+03  0.00000000000E+00 0.  1.
         21   -1    0    0  505  502 -0.00000000000E+00 -0.00000000000E+00 -0.16714122597E+03  0.16714122597E+03  0.00000000000E+00 0. -1.
         21    1    1    2  503  501 -0.15451925776E+03 -0.35490039851E+02  0.35252636747E+03  0.38653665248E+03  0.00000000000E+00 0.  1.
         21    1    1    2  504  502  0.64313311637E+02 -0.17391400337E+02 -0.11196659230E+03  0.13028883548E+03  0.00000000000E+00 0. -1.
         21    1    1    2  505  506  0.47457749899E+02  0.25160789335E+02  0.17379958595E+02  0.56456764929E+02  0.00000000000E+00 0.  1.
         21    1    1    2  506  503  0.42748196223E+02  0.27720650853E+02  0.59058332741E+02  0.77998265559E+02  0.00000000000E+00 0.  1.
<scales pt_clust_3="137.30590" pt_clust_4="66.62329" pt_clust_5="35.13914" pt_clust_6="35.13914"></scales>
<clustering>
<clus scale="   35.139">  5  6 -1 -1</clus>
<clus scale="   66.623">  2  4  1 -1</clus>
<clus scale="  137.306">  1  3  2 -1</clus>
<clus scale="  137.306">  1  3  2 -1</clus>
</clustering>
</event>
<event>
 6    0  0.1555973E+002  0.1314958E+03  0.7546771E-02  0.1225253E+00
         21   -1    0    0  506  501  0.00000000000E+00  0.00000000000E+00  0.55491381261E+03  0.55491381261E+03  0.00000000000E+00 0.  1.
         21   -1    0    0  505  502 -0.00000000000E+00 -0.00000000000E+00 -0.16925927991E+03  0.16925927991E+03  0.00000000000E+00 0.  1.
         21    1    1    2  503  504  0.50657527112E+02 -0.42902860205E+01 -0.93667600730E+02  0.10657490809E+03  0.00000000000E+00 0.  1.
         21    1    1    2  504  502  0.22876768472E+02 -0.43144308438E+02  0.15967221107E+02  0.51378303166E+02  0.00000000000E+00 0. -1.
         21    1    1    2  505  501  0.74625234619E+02  0.31525329786E+02  0.16105748922E+01  0.81026946207E+02  0.00000000000E+00 0.  1.
         21    1    1    2  506  503 -0.14815953020E+03  0.15909264672E+02  0.46174433742E+03  0.48519293506E+03  0.00000000000E+00 0.  1.
<scales pt_clust_3="73.49249" pt_clust_4="48.83419" pt_clust_5="14000.00000" pt_clust_6="131.49580"></scales>
<clustering>
<clus scale="   48.834">  2  4  1 -1</clus>
<clus scale="   73.492">  2  3  1 -1</clus>
<clus scale="  131.496">  1  6  2 -1</clus>
<clus scale="  131.496">  1  3  2 -1</clus>
</clustering>
</event>
<event>
 6    0  0.1555973E+002  0.1568039E+03  0.7546771E-02  0.1192353E+00
         21   -1    0    0  506  501  0.00000000000E+00  0.00000000000E+00  0.72306601236E+03  0.72306601236E+03  0.00000000000E+00 0. -1.
         21   -1    0    0  503  502 -0.00000000000E+00 -0.00000000000E+00 -0.16766909709E+03  0.16766909709E+03  0.00000000000E+00 0. -1.
         21    1    1    2  503  501 -0.29658649815E+02 -0.13633496228E+03  0.44135392390E+03  0.46288242956E+03  0.00000000000E+00 0. -1.
         21    1    1    2  504  505  0.22575395793E+02  0.50019515708E+02  0.72204375943E+02  0.90692184626E+02  0.00000000000E+00 0.  1.
         21    1    1    2  505  502  0.26749400783E+02 -0.44711699722E+02 -0.11833011284E+03  0.12929300886E+03  0.00000000000E+00 0. -1.
         21    1    1    2  506  504 -0.19666146761E+02  0.13102714629E+03  0.16016872826E+03  0.20786748641E+03  0.00000000000E+00 0. -1.
<scales pt_clust_3="149.10803" pt_clust_4="31.22678" pt_clust_5="52.10246" pt_clust_6="31.22678"></scales>
<clustering>
<clus scale="   31.227">  4  6 -1 -1</clus>
<clus scale="   52.102">  2  5  1 -1</clus>
<clus scale="  149.108">  1  3  2 -1</clus>
<clus scale="  149.108">  1  3  2 -1</clus>
</clustering>
</event>
<event>
 6    0  0.1724506E+002  0.1016616E+03  0.7546771E-02  0.1276840E+00
         21   -1    0    0  503  501  0.00000000000E+00  0.00000000000E+00  0.16023812371E+03  0.16023812371E+03  0.00000000000E+00 0.  1.
         21   -1    0    0  504  502 -0.00000000000E+00 -0.00000000000E+00 -0.10644794042E+04  0.10644794042E+04  0.00000000000E+00 0. -1.
         21    1    1    2  503  505  0.30903913450E+02 -0.20747111738E+02 -0.74840688546E+01  0.37967167377E+02  0.00000000000E+00 0.  1.
         21    1    1    2  504  501 -0.22850473335E+02  0.79939684324E+02  0.10640557587E+03  0.13503571319E+03  0.00000000000E+00 0.  1.
         21    1    1    2  505  506 -0.21143248656E+02  0.42044959624E+02 -0.38690856289E+01  0.47220603735E+02  0.00000000000E+00 0.  1.
         21    1    1    2  506  502  0.13089808541E+02 -0.10123753221E+03 -0.99929370187E+03  0.10044940436E+04  0.00000000000E+00 0. -1.
<scales pt_clust_3="37.22223" pt_clust_4="101.66164" pt_clust_5="42.30383" pt_clust_6="14000.00000"></scales>
<clustering>
<clus scale="   37.222">  1  3  2 -1</clus>
<clus scale="   42.304">  1  5  2 -1</clus>
<clus scale="  101.662">  1  4  2 -1</clus>
<clus scale="   37.222">  1  3  2 -1</clus>
</clustering>
</event>
<event>
 6    0  0.1555973E+002  0.1394802E+03  0.7546771E-02  0.1214030E+00
         21   -1    0    0  503  501  0.00000000000E+00  0.00000000000E+00  0.28646623825E+03  0.28646623825E+03  0.00000000000E+00 0. -1.
         21   -1    0    0  505  502 -0.00000000000E+00 -0.00000000000E+00 -0.33837833220E+03  0.33837833220E+03  0.00000000000E+00 0. -1.
         21    1    1    2  503  506  0.29348874306E+02 -0.12570267741E+02  0.27627033728E+02  0.42221097176E+02  0.00000000000E+00 0. -1.
         21    1    1    2  504  502  0.10874352341E+03  0.90487151919E+02 -0.28321459017E+03  0.31658108382E+03  0.00000000000E+00 0. -1.
         21    1    1    2  505  501 -0.10299913021E+03 -0.55856274969E+02  0.18840557961E+03  0.22186799387E+03  0.00000000000E+00 0. -1.
         21    1    1    2  506  504 -0.35093267504E+02 -0.22060609210E+02  0.15269882881E+02  0.44174395594E+02  0.00000000000E+00 0. -1.
<scales pt_clust_3="31.92754" pt_clust_4="14000.00000" pt_clust_5="139.48017" pt_clust_6="39.42812"></scales>
<clustering>
<clus scale="   31.928">  1  3  2 -1</clus>
<clus scale="   39.428">  1  6  2 -1</clus>
<clus scale="  139.480">  1  5  2 -1</clus>
<clus scale="   31.928">  1  3  2 -1</clus>
</clustering>
</event>
<event>
 6    0  0.1555973E+002  0.1239720E+03  0.7546771E-02  0.1236685E+00
         21   -1    0    0  506  501  0.00000000000E+00  0.00000000000E+00  0.25460006269E+03  0.25460006269E+03  0.00000000000E+00 0.  1.
         21   -1    0    0  504  502 -0.00000000000E+00 -0.00000000000E+00 -0.43917293085E+03  0.43917293085E+03  0.00000000000E+00 0.  1.
         21    1    1    2  503  502  0.26952052466E+02 -0.17181560798E+02 -0.25903729975E+03  0.26100180426E+03  0.00000000000E+00 0.  1.
         21    1    1    2  504  501 -0.40706374196E+02  0.40634537490E+01  0.18215181595E+02  0.44780725732E+02  0.00000000000E+00 0.  1.
         21    1    1    2  505  503  0.99156687564E+02 -0.24669478382E+02 -0.13843804569E+03  0.17206314058E+03  0.00000000000E+00 0.  1.
         21    1    1    2  506  505 -0.85402365834E+02  0.37787585430E+02  0.19468729568E+03  0.21592732297E+03  0.00000000000E+00 0.  1.
<scales pt_clust_3="31.96278" pt_clust_4="38.80849" pt_clust_5="123.97198" pt_clust_6="14000.00000"></scales>
<clustering>
<clus scale="   31.963">  2  3  1 -1</clus>
<clus scale="   38.808">  1  4  2 -1</clus>
<clus scale="  123.972">  2  5  1 -1</clus>
<clus scale="   38.808">  1  3  2 -1</clus>
</clustering>
</event>
<event>
 6    0  0.1555973E+002  0.9269165E+02  0.7546771E-02  0.1296461E+00
         21   -1    0    0  504  501  0.00000000000E+00  0.00000000000E+00  0.66636886698E+03  0.66636886698E+03  0.00000000000E+00 0. -1.
         21   -1    0    0  506  502 -0.00000000000E+00 -0.00000000000E+00 -0.31679778531E+03  0.31679778531E+03  0.00000000000E+00 0. -1.
         21    1    1    2  503  501 -0.43342440010E+02 -0.60304280130E+02  0.20881941943E+03  0.22163195446E+03  0.00000000000E+00 0. -1.
         21    1    1    2  504  505 -0.45438548224E+02  0.24504060331E+02  0.38412805337E+02  0.64347915671E+02  0.00000000000E+00 0.  1.
         21    1    1    2  505  502  0.75906318219E+02 -0.54827608845E+02 -0.28457906918E+03  0.29958818811E+03  0.00000000000E+00 0. -1.
         21    1    1    2  506  503  0.12874670014E+02  0.90627828645E+02  0.38691792609E+03  0.39759859404E+03  0.00000000000E+00 0. -1.
<scales pt_clust_3="78.64959" pt_clust_4="51.62471" pt_clust_5="92.69165" pt_clust_6="14000.00000"></scales>
<clustering>
<clus scale="   51.625">  1  4  2 -1</clus>
<clus scale="   78.650">  1  3  2 -1</clus>
<clus scale="   92.692">  2  5  1 -1</clus>
<clus scale="   51.625">  1  3  2 -1</clus>
</clustering>
</event>
<event>
 6    0  0.1555973E+002  0.6788504E+02  0.7546771E-02  0.1367436E+00
         21   -1    0    0  503  501  0.00000000000E+00  0.00000000000E+00  0.29316231294E+03  0.29316231294E+03  0.00000000000E+00 0. -1.
         21   -1    0    0  505  502 -0.00000000000E+00 -0.00000000000E+00 -0.36936375161E+03  0.36936375161E+03  0.00000000000E+00 0.  1.
         21    1    1    2  503  506  0.38709356774E+02  0.37333395788E+02  0.24080535157E+02  0.58924264241E+02  0.00000000000E+00 0.  1.
         21    1    1    2  504  501 -0.20698884492E+02  0.33135915771E+02  0.16788284774E+03  0.17236903231E+03  0.00000000000E+00 0. -1.
         21    1    1    2  505  504  0.67076092632E+02 -0.19363013719E+01 -0.30778589573E+03  0.31501604574E+03  0.00000000000E+00 0.  1.
         21    1    1    2  506  502 -0.85086564913E+02 -0.68533010187E+02  0.39621074163E+02  0.11621672226E+03  0.00000000000E+00 0. -1.
<scales pt_clust_3="57.96473" pt_clust_4="39.06959" pt_clust_5="14000.00000" pt_clust_6="67.88504"></scales>
<clustering>
<clus scale="   39.070">  1  4  2 -1</clus>
<clus scale="   57.965">  1  3  2 -1</clus>
<clus scale="   67.885">  1  6  2 -1</clus>
<clus scale="   39.070">  1  3  2 -1</clus>
</clustering>
</event>
<event>
 6    0  0.1555973E+002  0.1335359E+03  0.7546771E-02  0.1222301E+00
         21   -1    0    0  506  501  0.00000000000E+00  0.00000000000E+00  0.40124242479E+03  0.40124242479E+03  0.00000000000E+00 0. -1.
         21   -1    0    0  504  502 -0.00000000000E+00 -0.00000000000E+00 -0.63590040053E+03  0.63590040053E+03  0.00000000000E+00 0.  1.
         21    1    1    2  503  502  0.25371365618E+02 -0.27173069754E+02 -0.58820872673E+03  0.58938237853E+03  0.00000000000E+00 0.  1.
         21    1    1    2  504  505 -0.43466630462E+02  0.43000165965E+01  0.14928860186E+02  0.46159603257E+02  0.00000000000E+00 0. -1.
         21    1    1    2  505  501 -0.96160230842E+02 -0.45807547696E+01  0.12478164663E+03  0.15760149950E+03  0.00000000000E+00 0. -1.
         21    1    1    2  506  503  0.11425549569E+03  0.27453807928E+02  0.21384024417E+03  0.24399934404E+03  0.00000000000E+00 0. -1.
<scales pt_clust_3="37.17636" pt_clust_4="33.70492" pt_clust_5="33.70492" pt_clust_6="123.80637"></scales>
<clustering>
<clus scale="   33.705">  4  5 -1 -1</clus>
<clus scale="   37.176">  2  3  1 -1</clus>
<clus scale="  123.806">  1  6  2 -1</clus>
<clus scale="  123.806">  1  3  2 -1</clus>
</clustering>
</event>
<event>
 6    0  0.1555973E+002  0.1226635E+03  0.7546771E-02  0.1238767E+00
         21   -1    0    0  503  501  0.00000000000E+00  0.00000000000E+00  0.20103846505E+03  0.20103846505E+03  0.00000000000E+00 0.  1.
         21   -1    0    0  506  502 -0.00000000000E+00 -0.00000000000E+00 -0.39314029979E+03  0.39314029979E+03  0.00000000000E+00 0. -1.
         21    1    1    2  503  502 -0.50478253127E+02 -0.12783565007E+02 -0.24299149795E+03  0.24850823256E+03  0.00000000000E+00 0. -1.
         21    1    1    2  504  505  0.24908903483E+02  0.71172209710E+02  0.89967410654E+02  0.11738855092E+03  0.00000000000E+00 0.  1.
         21    1    1    2  505  501  0.46230795462E+02  0.25337052980E+02  0.71008915831E+02  0.88439351141E+02  0.00000000000E+00 0.  1.
         21    1    1    2  506  504 -0.20661445819E+02 -0.83725697683E+02 -0.11008666327E+03  0.13984263022E+03  0.00000000000E+00 0. -1.
<scales pt_clust_3="52.07181" pt_clust_4="38.10521" pt_clust_5="38.10521" pt_clust_6="113.88361"></scales>
<clustering>
<clus scale="   38.105">  4  5 -1 -1</clus>
<clus scale="   52.072">  2  3  1 -1</clus>
<clus scale="  113.884">  2  6  1 -1</clus>
<clus scale="  122.663">  1  3  2 -1</clus>
</clustering>
</event>
<event>
 6    0  0.1555973E+002  0.9867804E+02  0.7546771E-02  0.1283101E+00
         21   -1    0    0  505  501  0.00000000000E+00  0.00000000000E+00  0.23878113946E+03  0.23878113946E+03  0.00000000000E+00 0. -1.
         21   -1    0    0  504  502 -0.00000000000E+00 -0.00000000000E+00 -0.31475940957E+03  0.31475940957E+03  0.00000000000E+00 0. -1.
         21    1    1    2  503  501  0.41589988684E+02  0.40483783491E+02  0.39786814594E+02  0.70367993434E+02  0.00000000000E+00 0. -1.
         21    1    1    2  504  503  0.20911361225E+02 -0.36679994532E+02 -0.27591111005E+02  0.50437847235E+02  0.00000000000E+00 0. -1.
         21    1    1    2  505  506 -0.91019103049E+02  0.52077001229E+02  0.15190999881E+03  0.18458910833E+03  0.00000000000E+00 0. -1.
         21    1    1    2  506  502  0.28517753140E+02 -0.55880790188E+02 -0.24008397251E+03  0.24814560003E+03  0.00000000000E+00 0. -1.
<scales pt_clust_3="57.49707" pt_clust_4="42.22212" pt_clust_5="14000.00000" pt_clust_6="98.67804"></scales>
<clustering>
<clus scale="   42.222">  2  4  1 -1</clus>
<clus scale="   57.497">  1  3  2 -1</clus>
<clus scale="   98.678">  2  6  1 -1</clus>
<clus scale="   57.497">  1  3  2 -1</clus>
</clustering>
</event>
<event>
 6    0  0.1555973E+002  0.1281053E+03  0.7546771E-02  0.1230294E+00
         21   -1    0    0  503  501  0.00000000000E+00  0.00000000000E+00  0.10101012006E+04  0.10101012006E+04  0.00000000000E+00 0.  1.
         21   -1    0    0  506  502 -0.00000000000E+00 -0.00000000000E+00 -0.15698377021E+03  0.15698377021E+03  0.00000000000E+00 0.  1.
         21    1    1    2  503  505  0.39289918273E+02  0.76016221447E+02  0.58992125916E+03  0.59609500552E+03  0.00000000000E+00 0.  1.
         21    1    1    2  504  501  0.16064500634E+02 -0.32121452758E+02  0.12933897005E+03  0.13423272731E+03  0.00000000000E+00 0.  1.
         21    1    1    2  505  502  0.10051989878E+02  0.58393013404E+02  0.25705033932E+03  0.26379094650E+03  0.00000000000E+00 0. -1.
         21    1    1    2  506  504 -0.65406408786E+02 -0.10228778209E+03 -0.12319313818E+03  0.17296629143E+03  0.00000000000E+00 0.  1.
<scales pt_clust_3="32.68159" pt_clust_4="35.91456" pt_clust_5="32.68159" pt_clust_6="121.93635"></scales>
<clustering>
<clus scale="   32.682">  3  5 -1 -1</clus>
<clus scale="   35.915">  1  4  2 -1</clus>
<clus scale="  121.936">  2  6  1 -1</clus>
<clus scale="   35.915">  1  3  2 -1</clus>
</clustering>
</event>
<event>
 6    0  0.1555973E+002  0.1923154E+03  0.7546771E-02  0.1156389E+00
         21   -1    0    0  506  501  0.00000000000E+00  0.00000000000E+00  0.19070413367E+03  0.19070413367E+03  0.00000000000E+00 0. -1.
         21   -1    0    0  501  502 -0.00000000000E+00 -0.00000000000E+00 -0.10792485587E+04  0.10792485587E+04  0.00000000000E+00 0. -1.
         21    1    1    2  503  504 -0.41920611661E+01  0.13693643081E+03 -0.28494385813E+03  0.31616793282E+03  0.00000000000E+00 0. -1.
         21    1    1    2  504  502 -0.37637876326E+02  0.87189601273E+01 -0.68837289509E+03  0.68945621521E+03  0.00000000000E+00 0. -1.
         21    1    1    2  505  503  0.15209826491E+02  0.35202546485E+02 -0.29817595659E+02  0.48576199026E+02  0.00000000000E+00 0. -1.
         21    1    1    2  506  505  0.26620111001E+02 -0.18085793742E+03  0.11458992388E+03  0.21575234528E+03  0.00000000000E+00 0. -1.
<scales pt_clust_3="34.32933" pt_clust_4="38.63457" pt_clust_5="34.32933" pt_clust_6="181.03850"></scales>
<clustering>
<clus scale="   34.329">  3  5 -1 -1</clus>
<clus scale="   38.635">  2  4  1 -1</clus>
<clus scale="  181.039">  1  6  2 -1</clus>
<clus scale="  181.039">  1  3  2 -1</clus>
</clustering>
</event>
<event>
 6    0  0.1555973E+002  0.1070989E+03  0.7546771E-02  0.1266038E+00
         21   -1    0    0  505  501  0.00000000000E+00  0.00000000000E+00  0.27899787795E+03  0.27899787795E+03  0.00000000000E+00 0.  1.
         21   -1    0    0  503  502 -0.00000000000E+00 -0.00000000000E+00 -0.12349338523E+04  0.12349338523E+04  0.00000000000E+00 0. -1.
         21    1    1    2  503  501  0.40397462672E+02  0.19798357516E+02  0.54427145134E+02  0.70613342068E+02  0.00000000000E+00 0.  1.
         21    1    1    2  504  502 -0.57390259590E+02 -0.43960112391E+02 -0.94441614564E+03  0.94717896383E+03  0.00000000000E+00 0. -1.
         21    1    1    2  505  506 -0.10033841448E+03 -0.94935453766E+02  0.16235667707E+03  0.21316713722E+03  0.00000000000E+00 0.  1.
         21    1    1    2  506  504  0.11733121140E+03  0.11909720864E+03 -0.22830365095E+03  0.28297228718E+03  0.00000000000E+00 0.  1.
<scales pt_clust_3="44.98811" pt_clust_4="72.01055" pt_clust_5="14000.00000" pt_clust_6="107.09893"></scales>
<clustering>
<clus scale="   44.988">  1  3  2 -1</clus>
<clus scale="   72.011">  2  4  1 -1</clus>
<clus scale="  107.099">  2  6  1 -1</clus>
<clus scale="   44.988">  1  3  2 -1</clus>
</clustering>
</event>
<event>
 6    0  0.1555973E+002  0.1069411E+03  0.7546771E-02  0.1266342E+00
         21   -1    0    0  505  501  0.00000000000E+00  0.00000000000E+00  0.42587172319E+03  0.42587172319E+03  0.00000000000E+00 0. -1.
         21   -1    0    0  503  502 -0.00000000000E+00 -0.00000000000E+00 -0.21019539064E+03  0.21019539064E+03  0.00000000000E+00 0. -1.
         21    1    1    2  503  504  0.34085249734E+02  0.96915385749E+02 -0.13240587358E+03  0.16758792201E+03  0.00000000000E+00 0. -1.
         21    1    1    2  504  506 -0.64419862902E+02 -0.11823741716E+03  0.68608539051E+02  0.15111961218E+03  0.00000000000E+00 0. -1.
         21    1    1    2  505  502  0.66387852253E+02  0.64753579997E+02  0.15388277005E+03  0.17966713658E+03  0.00000000000E+00 0. -1.
         21    1    1    2  506  501 -0.36053239086E+02 -0.43431548586E+02  0.12559089703E+03  0.13769244306E+03  0.00000000000E+00 0. -1.
<scales pt_clust_3="106.94112" pt_clust_4="14000.00000" pt_clust_5="61.01219" pt_clust_6="56.44586"></scales>
<clustering>
<clus scale="   56.446">  1  6  2 -1</clus>
<clus scale="   61.012">  1  5  2 -1</clus>
<clus scale="  106.941">  2  3  1 -1</clus>
<clus scale="   56.446">  1  3  2 -1</clus>
</clustering>
</event>
<event>
 6    0  0.1555973E+002  0.1810210E+03  0.7546771E-02  0.1166819E+00
         21   -1    0    0  502  501  0.00000000000E+00  0.00000000000E+00  0.23724724629E+02  0.23724724629E+02  0.00000000000E+00 0.  1.
         21   -1    0    0  505  502 -0.00000000000E+00 -0.00000000000E+00 -0.31858144714E+04  0.31858144714E+04  0.00000000000E+00 0. -1.
         21    1    1    2  503  501  0.57978279306E+02  0.40543075195E+02 -0.95384102265E+02  0.11875752095E+03  0.00000000000E+00 0.  1.
         21    1    1    2  504  503  0.43275870203E+02  0.33022346560E+02 -0.14279361471E+03  0.15281784161E+03  0.00000000000E+00 0.  1.
         21    1    1    2  505  506 -0.14908182256E+03 -0.62762894005E+02 -0.28005082175E+04  0.28051757248E+04  0.00000000000E+00 0. -1.
         21    1    1    2  506  504  0.47827673049E+02 -0.10802527750E+02 -0.12340381232E+03  0.13278810870E+03  0.00000000000E+00 0.  1.
<scales pt_clust_3="43.48954" pt_clust_4="32.35200" pt_clust_5="161.75466" pt_clust_6="43.48954"></scales>
<clustering>
<clus scale="   32.352">  3  4 -1 -1</clus>
<clus scale="   43.490">  3  6 -1 -1</clus>
<clus scale="  161.755">  2  5  1 -1</clus>
<clus scale="  181.021">  1  3  2 -1</clus>
</clustering>
</event>
<event>
 6    0  0.1555973E+002  0.1155528E+03  0.7546771E-02  0.1250619E+00
         21   -1    0    0  505  501  0.00000000000E+00  0.00000000000E+00  0.10986855390E+04  0.10986855390E+04  0.00000000000E+00 0.  1.
         21   -1    0    0  504  502 -0.00000000000E+00 -0.00000000000E+00 -0.15686373927E+03  0.15686373927E+03  0.00000000000E+00 0.  1.
         21    1    1    2  503  502  0.22640031787E+02 -0.51794638654E+02 -0.12767386585E+03  0.13962761780E+03  0.00000000000E+00 0.  1.
         21    1    1    2  504  501 -0.12489484595E+03  0.67556243855E+02  0.65827971018E+03  0.67342018492E+03  0.00000000000E+00 0.  1.
         21    1    1    2  505  506  0.68482249430E+02 -0.64288934692E+02  0.32241791478E+03  0.33582167498E+03  0.00000000000E+00 0.  1.
         21    1    1    2  506  503  0.33772564729E+02  0.48527329492E+02  0.88798040660E+02  0.10667980062E+03  0.00000000000E+00 0.  1.
<scales pt_clust_3="56.52659" pt_clust_4="115.55279" pt_clust_5="14000.00000" pt_clust_6="51.20861"></scales>
<clustering>
<clus scale="   56.527">  2  3  1 -1</clus>
<clus scale="   51.209">  2  6  1 -1</clus>
<clus scale="  115.553">  2  4  1 -1</clus>
<clus scale="  115.553">  1  3  2 -1</clus>
</clustering>
</event>
<event>
 6    0  0.1555973E+002  0.1488550E+03  0.7546771E-02  0.1201887E+00
         21   -1    0    0  503  501  0.00000000000E+00  0.00000000000E+00  0.21850091954E+03  0.21850091954E+03  0.00000000000E+00 0. -1.
         21   -1    0    0  504  502 -0.00000000000E+00 -0.00000000000E+00 -0.19472998262E+03  0.19472998262E+03  0.00000000000E+00 0. -1.
         21    1    1    2  503  506  0.60325881210E+02 -0.65655050905E+02  0.29937622437E+02  0.94053489517E+02  0.00000000000E+00 0. -1.
         21    1    1    2  504  505  0.47133447566E+02  0.89489616290E+01  0.10908688606E+02  0.49200053667E+02  0.00000000000E+00 0. -1.
         21    1    1    2  505  501  0.57572545911E+02  0.21157284900E+02  0.58731122236E+02  0.84920983662E+02  0.00000000000E+00 0. -1.
         21    1    1    2  506  502 -0.16503187469E+03  0.35548804376E+02 -0.75806496353E+02  0.18505637531E+03  0.00000000000E+00 0. -1.
<scales pt_clust_3="89.16164" pt_clust_4="31.50520" pt_clust_5="31.50520" pt_clust_6="144.52958"></scales>
<clustering>
<clus scale="   31.505">  4  5 -1 -1</clus>
<clus scale="   89.162">  1  3  2 -1</clus>
<clus scale="  144.530">  2  6  1 -1</clus>
<clus scale="   89.162">  1  3  2 -1</clus>
</clustering>
</event>
<event>
 6    0  0.1555973E+002  0.7931271E+02  0.7546771E-02  0.1331013E+00
         21   -1    0    0  505  501  0.00000000000E+00  0.00000000000E+00  0.14092766138E+04  0.14092766138E+04  0.00000000000E+00 0. -1.
         21   -1    0    0  503  502 -0.00000000000E+00 -0.00000000000E+00 -0.28038660590E+03  0.28038660590E+03  0.00000000000E+00 0.  1.
         21    1    1    2  503  501 -0.79493562686E+02  0.16571196939E+02  0.38501728844E+03  0.39348715795E+03  0.00000000000E+00 0. -1.
         21    1    1    2  504  506  0.98803821121E+01 -0.62017530217E+02  0.71685642209E+02  0.95302818971E+02  0.00000000000E+00 0.  1.
         21    1    1    2  505  504  0.51980277683E+02  0.73334093651E+02  0.93333285539E+03  0.93765135179E+03  0.00000000000E+00 0. -1.
         21    1    1    2  506  502  0.17632902890E+02 -0.27887760374E+02 -0.26114577815E+03  0.26322189097E+03  0.00000000000E+00 0.  1.
<scales pt_clust_3="76.06249" pt_clust_4="14000.00000" pt_clust_5="79.31271" pt_clust_6="32.99464"></scales>
<clustering>
<clus scale="   32.995">  2  6  1 -1</clus>
<clus scale="   76.062">  1  3  2 -1</clus>
<clus scale="   79.313">  1  5  2 -1</clus>
<clus scale="   76.062">  1  3  2 -1</clus>
</clustering>
</event>
<event>
 6    0  0.1555973E+002  0.1304807E+03  0.7546771E-02  0.1226744E+00
         21   -1    0    0  506  501  0.00000000000E+00  0.00000000000E+00  0.18959098410E+03  0.18959098410E+03  0.00000000000E+00 0. -1.
         21   -1    0    0  505  502 -0.00000000000E+00 -0.00000000000E+00 -0.51471550363E+03  0.51471550363E+03  0.00000000000E+00 0.  1.
         21    1    1    2  503  502  0.90718383010E+02  0.34638889638E+02  0.34851292565E+02  0.10317116983E+03  0.00000000000E+00 0. -1.
         21    1    1    2  504  501 -0.78163056798E+02  0.55482832436E+02  0.41824691495E+02  0.10458065290E+03  0.00000000000E+00 0. -1.
         21    1    1    2  505  504 -0.59962933082E+02 -0.52726838276E+02 -0.42457753646E+03  0.43202055192E+03  0.00000000000E+00 0.  1.
         21    1    1    2  506  503  0.47407606870E+02 -0.37394883798E+02  0.22777032875E+02  0.64534113073E+02  0.00000000000E+00 0.  1.
<scales pt_clust_3="59.62586" pt_clust_4="106.33705" pt_clust_5="79.84781" pt_clust_6="59.62586"></scales>
<clustering>
<clus scale="   59.626">  3  6 -1 -1</clus>
<clus scale="   79.848">  2  5  1 -1</clus>
<clus scale="  106.337">  1  4  2 -1</clus>
<clus scale="  106.337">  1  3  2 -1</clus>
</clustering>
</event>
<event>
 6    0  0.1555973E+002  0.9560155E+02  0.7546771E-02  0.1289827E+00
         21   -1    0    0  505  501  0.00000000000E+00  0.00000000000E+00  0.64972352298E+03  0.64972352298E+03  0.00000000000E+00 0.  1.
         21   -1    0    0  503  502 -0.00000000000E+00 -0.00000000000E+00 -0.11469316575E+03  0.11469316575E+03  0.00000000000E+00 0. -1.
         21    1    1    2  503  504  0.10846915765E+02 -0.39297488876E+02 -0.79668171969E+02  0.89492825626E+02  0.00000000000E+00 0. -1.
         21    1    1    2  504  501 -0.31046806185E+02 -0.53613839896E+02  0.13935487016E+03  0.15250615673E+03  0.00000000000E+00 0.  1.
         21    1    1    2  505  506 -0.25952095398E+02  0.14410636830E+03  0.34951733979E+03  0.37894924127E+03  0.00000000000E+00 0.  1.
         21    1    1    2  506  502  0.46151985819E+02 -0.51195039532E+02  0.12582631925E+03  0.14346846512E+03  0.00000000000E+00 0.  1.
<scales pt_clust_3="40.76700" pt_clust_4="68.48851" pt_clust_5="14000.00000" pt_clust_6="95.60155"></scales>
<clustering>
<clus scale="   40.767">  2  3  1 -1</clus>
<clus scale="   68.489">  1  4  2 -1</clus>
<clus scale="   95.602">  2  6  1 -1</clus>
<clus scale="   68.489">  1  3  2 -1</clus>
</clustering>
</event>
<event>
 6    0  0.1555973E+002  0.1669596E+03  0.7546771E-02  0.1181056E+00
         21   -1    0    0  506  501  0.00000000000E+00  0.00000000000E+00  0.38124176104E+03  0.38124176104E+03  0.00000000000E+00 0.  1.
         21   -1    0    0  503  502 -0.00000000000E+00 -0.00000000000E+00 -0.49995066017E+03  0.49995066017E+03  0.00000000000E+00 0.  1.
         21    1    1    2  503  504  0.73996543213E+02 -0.21706037148E+02  0.78392137823E+02  0.10996348361E+03  0.00000000000E+00 0.  1.
         21    1    1    2  504  501  0.30471053010E+02 -0.80916554756E+02  0.11776162954E+03  0.14609508992E+03  0.00000000000E+00 0.  1.
         21    1    1    2  505  502  0.10162928722E+03  0.12494841760E+03 -0.37596704532E+03  0.40901324948E+03  0.00000000000E+00 0.  1.
         21    1    1    2  506  505 -0.20609688345E+03 -0.22325825699E+02  0.61104378819E+02  0.21612059821E+03  0.00000000000E+00 0.  1.
<scales pt_clust_3="70.95384" pt_clust_4="70.95384" pt_clust_5="161.06092" pt_clust_6="149.09961"></scales>
<clustering>
<clus scale="   70.954">  3  4 -1 -1</clus>
<clus scale="  161.061">  2  5  1 -1</clus>
<clus scale="  149.100">  2  6  1 -1</clus>
<clus scale="  166.960">  1  3  2 -1</clus>
</clustering>
</event>
<event>
 6    0  0.1635067E+002  0.1238761E+03  0.7546771E-02  0.1236836E+00
         21   -1    0    0  503  501  0.00000000000E+00  0.00000000000E+00  0.36226400710E+03  0.36226400710E+03  0.00000000000E+00 0.  1.
         21   -1    0    0  504  502 -0.00000000000E+00 -0.00000000000E+00 -0.11313677857E+04  0.11313677857E+04  0.00000000000E+00 0. -1.
         21    1    1    2  503  505  0.33324489494E+02 -0.29751638267E+02 -0.16399310737E+02  0.47588012905E+02  0.00000000000E+00 0. -1.
         21    1    1    2  504  506 -0.80387691194E+02 -0.49900792528E+02 -0.57784610925E+02  0.11086627643E+03  0.00000000000E+00 0. -1.
         21    1    1    2  505  502 -0.34784265902E+01 -0.41281972666E+02 -0.10011861690E+04  0.10020429361E+04  0.00000000000E+00 0. -1.
         21    1    1    2  506  501  0.50541628291E+02  0.12093440346E+03  0.30626631204E+03  0.33313456743E+03  0.00000000000E+00 0.  1.
<scales pt_clust_3="51.46408" pt_clust_4="123.87612" pt_clust_5="41.42826" pt_clust_6="14000.00000"></scales>
<clustering>
<clus scale="   41.428">  2  5  1 -1</clus>
<clus scale="   51.464">  2  3  1 -1</clus>
<clus scale="  123.876">  2  4  1 -1</clus>
<clus scale="  123.876">  1  3  2 -1</clus>
</clustering>
</event>
<event>
 6    0  0.1555973E+002  0.1613000E+03  0.7546771E-02  0.1187237E+00
         21   -1    0    0  503  501  0.00000000000E+00  0.00000000000E+00  0.75158808308E+02  0.75158808308E+02  0.00000000000E+00 0. -1.
         21   -1    0    0  506  502 -0.00000000000E+00 -0.00000000000E+00 -0.85410804873E+03  0.85410804873E+03  0.00000000000E+00 0.  1.
         21    1    1    2  503  502 -0.48511306147E+02 -0.99425510205E+01 -0.10491553019E+03  0.11601495430E+03  0.00000000000E+00 0. -1.
         21    1    1    2  504  501 -0.80996619486E+01 -0.88606030674E+02 -0.59459787629E+02  0.10701448285E+03  0.00000000000E+00 0. -1.
         21    1    1    2  505  504 -0.20623693106E+01 -0.59283535727E+02  0.92956744289E+01  0.60043322182E+02  0.00000000000E+00 0. -1.
         21    1    1    2  506  505  0.58673337406E+02  0.15783211742E+03 -0.62386959703E+03  0.64619409770E+03  0.00000000000E+00 0.  1.
<scales pt_clust_3="49.51970" pt_clust_4="47.73134" pt_clust_5="47.73134" pt_clust_6="150.33433"></scales>
<clustering>
<clus scale="   47.731">  4  5 -1 -1</clus>
<clus scale="   49.520">  2  3  1 -1</clus>
<clus scale="  150.334">  2  6  1 -1</clus>
<clus scale="  161.300">  1  3  2 -1</clus>
</clustering>
</event>
<event>
 6    0  0.1555973E+002  0.8243664E+02  0.7546771E-02  0.1322275E+00
         21   -1    0    0  503  501  0.00000000000E+00  0.00000000000E+00  0.15000393502E+03  0.15000393502E+03  0.00000000000E+00 0.  1.
         21   -1    0    0  504  502 -0.00000000000E+00 -0.00000000000E+00 -0.29571788195E+03  0.29571788195E+03  0.00000000000E+00 0. -1.
         21    1    1    2  503  505  0.20203924605E+02  0.66620357521E+02  0.21437898604E+01  0.69649597562E+02  0.00000000000E+00 0.  1.
         21    1    1    2  504  506 -0.71076890268E+02 -0.32303084396E+02 -0.10119919342E+03  0.12781506305E+03  0.00000000000E+00 0. -1.
         21    1    1    2  505  502 -0.21653704736E+02  0.40100893005E+02 -0.11512346439E+03  0.12381589801E+03  0.00000000000E+00 0. -1.
         21    1    1    2  506  501  0.72526670400E+02 -0.74418166130E+02  0.68464921022E+02  0.12444125835E+03  0.00000000000E+00 0.  1.
<scales pt_clust_3="76.01525" pt_clust_4="82.43664" pt_clust_5="45.57373" pt_clust_6="14000.00000"></scales>
<clustering>
<clus scale="   45.574">  2  5  1 -1</clus>
<clus scale="   76.015">  1  3  2 -1</clus>
<clus scale="   82.437">  2  4  1 -1</clus>
<clus scale="   76.015">  1  3  2 -1</clus>
</clustering>
</event>
<event>
 6    0  0.1555973E+002  0.1170853E+03  0.7546771E-02  0.1247984E+00
         21   -1    0    0  506  501  0.00000000000E+00  0.00000000000E+00  0.83520608476E+02  0.83520608476E+02  0.00000000000E+00 0.  1.
         21   -1    0    0  501  502 -0.00000000000E+00 -0.00000000000E+00 -0.10735411108E+04  0.10735411108E+04  0.00000000000E+00 0. -1.
         21    1    1    2  503  505  0.35094501761E+02  0.32002875814E+01 -0.20115682878E+02  0.40577168360E+02  0.00000000000E+00 0. -1.
         21    1    1    2  504  502 -0.21274206509E+02 -0.32187888678E+02 -0.89383679319E+03  0.89466913711E+03  0.00000000000E+00 0. -1.
         21    1    1    2  505  504 -0.84967680769E+02  0.57838586683E+02 -0.97951001606E+02  0.14198312435E+03  0.00000000000E+00 0. -1.
         21    1    1    2  506  503  0.71147385517E+02 -0.28850985586E+02  0.21882975321E+02  0.79832289482E+02  0.00000000000E+00 0.  1.
<scales pt_clust_3="34.21225" pt_clust_4="38.58305" pt_clust_5="105.63595" pt_clust_6="34.21225"></scales>
<clustering>
<clus scale="   34.212">  3  6 -1 -1</clus>
<clus scale="   38.583">  2  4  1 -1</clus>
<clus scale="  105.636">  2  5  1 -1</clus>
<clus scale="  117.085">  1  3  2 -1</clus>
</clustering>
</event>
<event>
 6    0  0.1555973E+002  0.8736235E+02  0.7546771E-02  0.1309368E+00
         21   -1    0    0  505  501  0.00000000000E+00  0.00000000000E+00  0.28146266829E+03  0.28146266829E+03  0.00000000000E+00 0.  1.
         21   -1    0    0  503  502 -0.00000000000E+00 -0.00000000000E+00 -0.23746291055E+03  0.23746291055E+03  0.00000000000E+00 0.  1.
         21    1    1    2  503  506  0.22522163364E+02 -0.28723058377E+02 -0.70832291644E+02  0.79683595957E+02  0.00000000000E+00 0.  1.
         21    1    1    2  504  501 -0.81596789293E+02 -0.26018506781E+02  0.20133620268E+03  0.21879503018E+03  0.00000000000E+00 0.  1.
         21    1    1    2  505  502 -0.52521309713E+02  0.32573672892E+02  0.19638002750E+02  0.64847384617E+02  0.00000000000E+00 0.  1.
         21    1    1    2  506  504  0.11159593564E+03  0.22167892266E+02 -0.10614215604E+03  0.15559956809E+03  0.00000000000E+00 0.  1.
<scales pt_clust_3="36.50016" pt_clust_4="14000.00000" pt_clust_5="57.05208" pt_clust_6="87.36235"></scales>
<clustering>
<clus scale="   36.500">  2  3  1 -1</clus>
<clus scale="   57.052">  2  5  1 -1</clus>
<clus scale="   87.362">  2  6  1 -1</clus>
<clus scale="   87.362">  1  3  2 -1</clus>
</clustering>
</event>
<event>
 6    0  0.1555973E+002  0.1584793E+03  0.7546771E-02  0.1190424E+00
         21   -1    0    0  506  501  0.00000000000E+00  0.00000000000E+00  0.13591938395E+04  0.13591938395E+04  0.00000000000E+00 0. -1.
         21   -1    0    0  503  502 -0.00000000000E+00 -0.00000000000E+00 -0.15114428235E+03  0.15114428235E+03  0.00000000000E+00 0.  1.
         21    1    1    2  503  504 -0.74139844412E+01  0.36598515880E+02 -0.11942742363E+03  0.12512924537E+03  0.00000000000E+00 0.  1.
         21    1    1    2  504  505  0.89312914516E+01 -0.48879342634E+02  0.23044964843E+03  0.23574562258E+03  0.00000000000E+00 0. -1.
         21    1    1    2  505  501  0.56053108562E+02 -0.92704393233E+02  0.96565841271E+03  0.97171612394E+03  0.00000000000E+00 0. -1.
         21    1    1    2  506  502 -0.57570415572E+02  0.10498521999E+03  0.13136891969E+03  0.17774713001E+03  0.00000000000E+00 0. -1.
<scales pt_clust_3="37.34191" pt_clust_4="37.22062" pt_clust_5="37.22062" pt_clust_6="148.64469"></scales>
<clustering>
<clus scale="   37.221">  4  5 -1 -1</clus>
<clus scale="   37.342">  2  3  1 -1</clus>
<clus scale="  148.645">  2  6  1 -1</clus>
<clus scale="  158.479">  1  3  2 -1</clus>
</clustering>
</event>
<event>
 6    0  0.1555973E+002  0.1685950E+03  0.7546771E-02  0.1179321E+00
         21   -1    0    0  505  501  0.00000000000E+00  0.00000000000E+00  0.56061589574E+03  0.56061589574E+03  0.00000000000E+00 0. -1.
         21   -1    0    0  504  502 -0.00000000000E+00 -0.00000000000E+00 -0.43494607197E+03  0.43494607197E+03  0.00000000000E+00 0. -1.
         21    1    1    2  503  506  0.14363151789E+01 -0.78984363864E+02  0.88108335159E+02  0.11833710940E+03  0.00000000000E+00 0. -1.
         21    1    1    2  504  501  0.85075465569E+02 -0.28787298475E+01  0.29075108656E+03  0.30295596423E+03  0.00000000000E+00 0. -1.
         21    1    1    2  505  503  0.13703672717E+02 -0.46126449146E+02  0.14040792332E+03  0.14842447537E+03  0.00000000000E+00 0.  1.
         21    1    1    2  506  502 -0.10021545347E+03  0.12798954286E+03 -0.39359752128E+03  0.42584441871E+03  0.00000000000E+00 0. -1.
<scales pt_clust_3="43.17394" pt_clust_4="85.12416" pt_clust_5="43.17394" pt_clust_6="159.26123"></scales>
<clustering>
<clus scale="   43.174">  3  5 -1 -1</clus>
<clus scale="   85.124">  1  4  2 -1</clus>
<clus scale="  159.261">  2  6  1 -1</clus>
<clus scale="   85.124">  1  3  2 -1</clus>
</clustering>
</event>
<event>
 6    0  0.1555973E+002  0.8896810E+02  0.7546771E-02  0.1305370E+00
         21   -1    0    0  506  501  0.00000000000E+00  0.00000000000E+00  0.25730122364E+04  0.25730122364E+04  0.00000000000E+00 0. -1.
         21   -1    0    0  504  502 -0.00000000000E+00 -0.00000000000E+00 -0.43087007334E+03  0.43087007334E+03  0.00000000000E+00 0.  1.
         21    1    1    2  503  502  0.25895562884E+02  0.37541128882E+02 -0.42445098135E+03  0.42689407598E+03  0.00000000000E+00 0.  1.
         21    1    1    2  504  501  0.28878411400E+02  0.89609373093E+01  0.49126510161E+03  0.49219473901E+03  0.00000000000E+00 0. -1.
         21    1    1    2  505  503  0.43789981599E+02 -0.80320835775E+02  0.79945127905E+03  0.80466847006E+03  0.00000000000E+00 0. -1.
         21    1    1    2  506  505 -0.98563955884E+02  0.33818769584E+02  0.12758767638E+04  0.12801250247E+04  0.00000000000E+00 0. -1.
<scales pt_clust_3="45.62006" pt_clust_4="30.23675" pt_clust_5="88.96810" pt_clust_6="14000.00000"></scales>
<clustering>
<clus scale="   30.237">  1  4  2 -1</clus>
<clus scale="   45.620">  2  3  1 -1</clus>
<clus scale="   88.968">  2  5  1 -1</clus>
<clus scale="   30.237">  1  3  2 -1</clus>
</clustering>
</event>
<event>
 6    0  0.1555973E+002  0.1140965E+03  0.7546771E-02  0.1253166E+00
         21   -1    0    0  503  501  0.00000000000E+00  0.00000000000E+00  0.19282679196E+04  0.19282679196E+04  0.00000000000E+00 0. -1.
         21   -1    0    0  505  502 -0.00000000000E+00 -0.00000000000E+00 -0.18676804364E+03  0.18676804364E+03  0.00000000000E+00 0. -1.
         21    1    1    2  503  506 -0.57123182991E+02 -0.77596396000E+02  0.11678236501E+04  0.11717919340E+04  0.00000000000E+00 0. -1.
         21    1    1    2  504  501  0.72222206475E+02  0.38475681726E+02  0.59323038567E+03  0.59884782347E+03  0.00000000000E+00 0.  1.
         21    1    1    2  505  504  0.23701881735E+02  0.36465054604E+02  0.15735906182E+03  0.16325854876E+03  0.00000000000E+00 0.  1.
         21    1    1    2  506  502 -0.38800905219E+02  0.26556596686E+01 -0.17691322170E+03  0.18113765701E+03  0.00000000000E+00 0. -1.
<scales pt_clust_3="102.04877" pt_clust_4="37.20190" pt_clust_5="37.20190" pt_clust_6="38.89168"></scales>
<clustering>
<clus scale="   37.202">  4  5 -1 -1</clus>
<clus scale="   38.892">  2  6  1 -1</clus>
<clus scale="  102.049">  1  3  2 -1</clus>
<clus scale="  102.049">  1  3  2 -1</clus>
</clustering>
</event>
<event>
 6    0  0.1555973E+002  0.1291866E+03  0.7546771E-02  0.1228668E+00
         21   -1    0    0  506  501  0.00000000000E+00  0.00000000000E+00  0.13932892497E+03  0.13932892497E+03  0.00000000000E+00 0.  1.
         21   -1    0    0  503  502 -0.00000000000E+00 -0.00000000000E+00 -0.39354068333E+03  0.39354068333E+03  0.00000000000E+00 0. -1.
         21    1    1    2  503  501 -0.13372353060E+03 -0.64468479696E+02  0.52484771855E+00  0.14845350443E+03  0.00000000000E+00 0.  1.
         21    1    1    2  504  505  0.14015128386E+02  0.33734311275E+02 -0.31390445686E+02  0.48164174043E+02  0.00000000000E+00 0.  1.
         21    1    1    2  505  502  0.73660737729E+00  0.31842624029E+02 -0.21460340691E+03  0.21695418308E+03  0.00000000000E+00 0. -1.
         21    1    1    2  506  504  0.11897179484E+03 -0.11084556077E+01 -0.87427534822E+01  0.11929774675E+03  0.00000000000E+00 0.  1.
<scales pt_clust_3="14000.00000" pt_clust_4="43.25023" pt_clust_5="31.85114" pt_clust_6="129.18662"></scales>
<clustering>
<clus scale="   31.851">  2  5  1 -1</clus>
<clus scale="   43.250">  2  4  1 -1</clus>
<clus scale="  129.187">  1  6  2 -1</clus>
<clus scale="  129.187">  1  3  2 -1</clus>
</clustering>
</event>
<event>
 6    0  0.1555973E+002  0.7204671E+02  0.7546771E-02  0.1353268E+00
         21   -1    0    0  503  501  0.00000000000E+00  0.00000000000E+00  0.12411162591E+03  0.12411162591E+03  0.00000000000E+00 0.  1.
         21   -1    0    0  506  502 -0.00000000000E+00 -0.00000000000E+00 -0.54552880835E+03  0.54552880835E+03  0.00000000000E+00 0.  1.
         21    1    1    2  503  505 -0.92297892780E+02  0.14196385382E+02  0.61340782977E+02  0.11172792858E+03  0.00000000000E+00 0.  1.
         21    1    1    2  504  501  0.48413579560E+02  0.44553574198E+02 -0.16809700585E+02  0.67907743987E+02  0.00000000000E+00 0.  1.
         21    1    1    2  505  502 -0.27821664732E+02 -0.37667159496E+02 -0.54640836534E+02  0.71961663058E+02  0.00000000000E+00 0.  1.
         21    1    1    2  506  504  0.71705977952E+02 -0.21082800084E+02 -0.41130742831E+03  0.41804309863E+03  0.00000000000E+00 0.  1.
<scales pt_clust_3="72.04671" pt_clust_4="61.76049" pt_clust_5="46.82798" pt_clust_6="14000.00000"></scales>
<clustering>
<clus scale="   46.828">  2  5  1 -1</clus>
<clus scale="   61.760">  1  4  2 -1</clus>
<clus scale="   72.047">  1  3  2 -1</clus>
<clus scale="   61.760">  1  3  2 -1</clus>
</clustering>
</event>
<event>
 6    0  0.1555973E+002  0.4006642E+03  0.7546771E-02  0.1043550E+00
         21   -1    0    0  503  501  0.00000000000E+00  0.00000000000E+00  0.99351911597E+03  0.99351911597E+03  0.00000000000E+00 0. -1.
         21   -1    0    0  506  502 -0.00000000000E+00 -0.00000000000E+00 -0.36067977324E+03  0.36067977324E+03  0.00000000000E+00 0. -1.
         21    1    1    2  503  502  0.29834051844E+03  0.23399782209E+03 -0.20096447726E+03  0.42912558396E+03  0.00000000000E+00 0. -1.
         21    1    1    2  504  505 -0.57747434092E+02 -0.70742694700E+02  0.12312112549E+03  0.15329092125E+03  0.00000000000E+00 0. -1.
         21    1    1    2  505  501 -0.91969035899E+02 -0.82784248257E+02  0.39185636594E+03  0.41092936967E+03  0.00000000000E+00 0. -1.
         21    1    1    2  506  504 -0.14862404845E+03 -0.80470879134E+02  0.31882632857E+03  0.36085301433E+03  0.00000000000E+00 0. -1.
<scales pt_clust_3="379.15966" pt_clust_4="43.93014" pt_clust_5="71.37553" pt_clust_6="71.37553"></scales>
<clustering>
<clus scale="   43.930">  4  6 -1 -1</clus>
<clus scale="   71.376">  4  5 -1 -1</clus>
<clus scale="  379.160">  2  3  1 -1</clus>
<clus scale="  400.664">  1  3  2 -1</clus>
</clustering>
</event>
<event>
 6    0  0.1555973E+002  0.9852792E+02  0.7546771E-02  0.1283422E+00
         21   -1    0    0  506  501  0.00000000000E+00  0.00000000000E+00  0.22832771722E+03  0.22832771722E+03  0.00000000000E+00 0.  1.
         21   -1    0    0  501  502 -0.00000000000E+00 -0.00000000000E+00 -0.93076925445E+02  0.93076925445E+02  0.00000000000E+00 0.  1.
         21    1    1    2  503  505 -0.92133498472E+02 -0.75163148710E+02  0.68910249859E+02  0.13742890162E+03  0.00000000000E+00 0.  1.
         21    1    1    2  504  502  0.47490342716E+02  0.20014365520E+02  0.14765689956E+02  0.53609076454E+02  0.00000000000E+00 0.  1.
         21    1    1    2  505  504  0.34689265877E+02 -0.15117864348E+02 -0.68348624390E+01  0.38452702559E+02  0.00000000000E+00 0.  1.
         21    1    1    2  506  503  0.99538898791E+01  0.70266647539E+02  0.58409714399E+02  0.91913962031E+02  0.00000000000E+00 0.  1.
<scales pt_clust_3="89.84844" pt_clust_4="34.64852" pt_clust_5="34.64852" pt_clust_6="70.96817"></scales>
<clustering>
<clus scale="   34.649">  4  5 -1 -1</clus>
<clus scale="   70.968">  1  6  2 -1</clus>
<clus scale="   89.848">  1  3  2 -1</clus>
<clus scale="   70.968">  1  3  2 -1</clus>
</clustering>
</event>
<event>
 6    0  0.1555973E+002  0.1231769E+03  0.7546771E-02  0.1237946E+00
         21   -1    0    0  504  501  0.00000000000E+00  0.00000000000E+00  0.53769413292E+02  0.53769413292E+02  0.00000000000E+00 0.  1.
         21   -1    0    0  503  502 -0.00000000000E+00 -0.00000000000E+00 -0.17147581367E+04  0.17147581367E+04  0.00000000000E+00 0. -1.
         21    1    1    2  503  505 -0.88358469088E+02  0.76044651392E+02 -0.15891484854E+04  0.15934186257E+04  0.00000000000E+00 0. -1.
         21    1    1    2  504  506  0.24616311189E+02 -0.30775607113E+02 -0.12446320779E+02  0.41328097835E+02  0.00000000000E+00 0.  1.
         21    1    1    2  505  501 -0.33458733959E+01 -0.41027671866E+02 -0.51750842474E+02  0.66125747060E+02  0.00000000000E+00 0. -1.
         21    1    1    2  506  502  0.67088031295E+02 -0.42413724131E+01 -0.76430748045E+01  0.67655079450E+02  0.00000000000E+00 0.  1.
<scales pt_clust_3="115.47582" pt_clust_4="32.82480" pt_clust_5="41.16388" pt_clust_6="32.82480"></scales>
<clustering>
<clus scale="   32.825">  4  6 -1 -1</clus>
<clus scale="   41.164">  1  5  2 -1</clus>
<clus scale="  115.476">  2  3  1 -1</clus>
<clus scale="   41.164">  1  3  2 -1</clus>
</clustering>
</event>
<event>
 6    0  0.1555973E+002  0.1815742E+03  0.7546771E-02  0.1166288E+00
         21   -1    0    0  506  501  0.00000000000E+00  0.00000000000E+00  0.29220458954E+03  0.29220458954E+03  0.00000000000E+00 0. -1.
         21   -1    0    0  504  502 -0.00000000000E+00 -0.00000000000E+00 -0.44905004059E+03  0.44905004059E+03  0.00000000000E+00 0. -1.
         21    1    1    2  503  505 -0.30983965794E+02  0.21675915327E+02  0.95124641985E+02  0.10236478376E+03  0.00000000000E+00 0. -1.
         21    1    1    2  504  503 -0.47459017574E+02  0.22613937026E+02  0.46257775661E+02  0.70025211931E+02  0.00000000000E+00 0. -1.
         21    1    1    2  505  501 -0.35637624291E+01  0.82719912226E+02  0.10761304789E+03  0.13577868889E+03  0.00000000000E+00 0. -1.
         21    1    1    2  506  502  0.82006745797E+02 -0.12700976458E+03 -0.40584091658E+03  0.43308594554E+03  0.00000000000E+00 0. -1.
<scales pt_clust_3="34.07671" pt_clust_4="81.46629" pt_clust_5="81.46629" pt_clust_6="151.18395"></scales>
<clustering>
<clus scale="   34.077">  3  4 -1 -1</clus>
<clus scale="   81.466">  3  5 -1 -1</clus>
<clus scale="  151.184">  2  6  1 -1</clus>
<clus scale="  181.574">  1  3  2 -1</clus>
</clustering>
</event>
<event>
 6    0  0.1555973E+002  0.1019974E+03  0.7546771E-02  0.1276151E+00
         21   -1    0    0  504  501  0.00000000000E+00  0.00000000000E+00  0.20110762351E+04  0.20110762351E+04  0.00000000000E+00 0.  1.
         21   -1    0    0  505  502 -0.00000000000E+00 -0.00000000000E+00 -0.17924339441E+02  0.17924339441E+02  0.00000000000E+00 0.  1.
         21    1    1    2  503  502  0.58622011971E+02 -0.95877353622E+02  0.21265034411E+03  0.24051855661E+03  0.00000000000E+00 0.  1.
         21    1    1    2  504  503 -0.12419495556E+02  0.49174277335E+02  0.30748891481E+03  0.31164368461E+03  0.00000000000E+00 0.  1.
         21    1    1    2  505  506 -0.67089433560E+02  0.18140404684E+02  0.10810831411E+04  0.10833147393E+04  0.00000000000E+00 0.  1.
         21    1    1    2  506  501  0.20886917146E+02  0.28562671603E+02  0.39192949563E+03  0.39352359404E+03  0.00000000000E+00 0.  1.
<scales pt_clust_3="101.99737" pt_clust_4="55.28350" pt_clust_5="14000.00000" pt_clust_6="35.38488"></scales>
<clustering>
<clus scale="   35.385">  1  6  2 -1</clus>
<clus scale="   55.284">  1  4  2 -1</clus>
<clus scale="  101.997">  2  3  1 -1</clus>
<clus scale="   35.385">  1  3  2 -1</clus>
</clustering>
</event>
<event>
 6    0  0.1555973E+002  0.7273997E+02  0.7546771E-02  0.1351016E+00
         21   -1    0    0  503  501  0.00000000000E+00  0.00000000000E+00  0.63240508269E+03  0.63240508269E+03  0.00000000000E+00 0.  1.
         21   -1    0    0  504  502 -0.00000000000E+00 -0.00000000000E+00 -0.25562107403E+03  0.25562107403E+03  0.00000000000E+00 0. -1.
         21    1    1    2  503  506 -0.67235546171E+02  0.63776213300E+02  0.28783954917E+03  0.30238986444E+03  0.00000000000E+00 0.  1.
         21    1    1    2  504  505  0.60091989842E+02 -0.38227240031E+02  0.56102790473E+02  0.90663621274E+02  0.00000000000E+00 0. -1.
         21    1    1    2  505  501 -0.13062814061E+02 -0.82395423665E+02  0.25315578188E+03  0.26654735574E+03  0.00000000000E+00 0.  1.
         21    1    1    2  506  502  0.20206370390E+02  0.56846450396E+02 -0.22031411286E+03  0.22842531526E+03  0.00000000000E+00 0. -1.
<scales pt_clust_3="14000.00000" pt_clust_4="72.73997" pt_clust_5="70.75679" pt_clust_6="60.33089"></scales>
<clustering>
<clus scale="   60.331">  2  6  1 -1</clus>
<clus scale="   70.757">  1  5  2 -1</clus>
<clus scale="   72.740">  2  4  1 -1</clus>
<clus scale="   70.757">  1  3  2 -1</clus>
</clustering>
</event>
<event>
 6    0  0.1555973E+002  0.1245260E+03  0.7546771E-02  0.1235812E+00
         21   -1    0    0  505  501  0.00000000000E+00  0.00000000000E+00  0.10178078952E+04  0.10178078952E+04  0.00000000000E+00 0. -1.
         21   -1    0    0  506  502 -0.00000000000E+00 -0.00000000000E+00 -0.19423225994E+04  0.19423225994E+04  0.00000000000E+00 0. -1.
         21    1    1    2  503  504 -0.84079650340E+02 -0.49210508199E+02  0.36987257305E+03  0.38248762335E+03  0.00000000000E+00 0. -1.
         21    1    1    2  504  502  0.23528932731E+02  0.10986670772E+03 -0.19216353958E+04  0.19249173745E+04  0.00000000000E+00 0. -1.
         21    1    1    2  505  503 -0.34792914658E+02 -0.73495205835E+02  0.34786920909E+03  0.35724652388E+03  0.00000000000E+00 0. -1.
         21    1    1    2  506  501  0.95343632266E+02  0.12839006315E+02  0.27937890952E+03  0.29547897282E+03  0.00000000000E+00 0. -1.
<scales pt_clust_3="48.90929" pt_clust_4="112.43118" pt_clust_5="48.90929" pt_clust_6="96.20420"></scales>
<clustering>
<clus scale="   48.909">  3  5 -1 -1</clus>
<clus scale="   96.204">  1  6  2 -1</clus>
<clus scale="  112.431">  2  4  1 -1</clus>
<clus scale="   96.204">  1  3  2 -1</clus>
</clustering>
</event>
<event>
 6    0  0.1555973E+002  0.1212411E+03  0.7546771E-02  0.1241064E+00
         21   -1    0    0  506  501  0.00000000000E+00  0.00000000000E+00  0.51323541561E+03  0.51323541561E+03  0.00000000000E+00 0. -1.
         21   -1    0    0  503  502 -0.00000000000E+00 -0.00000000000E+00 -0.14895984445E+04  0.14895984445E+04  0.00000000000E+00 0.  1.
         21    1    1    2  503  504  0.92359023752E+02 -0.91779819790E+02 -0.10923200186E+03  0.16995692048E+03  0.00000000000E+00 0. -1.
         21    1    1    2  504  501 -0.91813869424E+02  0.73310062701E+02  0.41992119127E+03  0.43604811523E+03  0.00000000000E+00 0. -1.
         21    1    1    2  505  502 -0.29788964377E+02 -0.12115000835E+02 -0.13335619930E+04  0.13339496786E+04  0.00000000000E+00 0.  1.
         21    1    1    2  506  505  0.29243810050E+02  0.30584757923E+02  0.46509774700E+02  0.62879145876E+02  0.00000000000E+00 0. -1.
<scales pt_clust_3="121.24113" pt_clust_4="14000.00000" pt_clust_5="32.15829" pt_clust_6="40.78060"></scales>
<clustering>
<clus scale="   32.158">  2  5  1 -1</clus>
<clus scale="   40.781">  1  6  2 -1</clus>
<clus scale="  121.241">  2  3  1 -1</clus>
<clus scale="   40.781">  1  3  2 -1</clus>
</clustering>
</event>
<event>
 6    0  0.1555973E+002  0.1207745E+03  0.7546771E-02  0.1241825E+00
         21   -1    0    0  503  501  0.00000000000E+00  0.00000000000E+00  0.81116293246E+02  0.81116293246E+02  0.00000000000E+00 0.  1.
         21   -1    0    0  506  502 -0.00000000000E+00 -0.00000000000E+00 -0.51778929427E+03  0.51778929427E+03  0.00000000000E+00 0.  1.
         21    1    1    2  503  502  0.17129935889E+01 -0.34777073639E+02  0.41454440367E+00  0.34821703648E+02  0.00000000000E+00 0.  1.
         21    1    1    2  504  505 -0.45283538484E+02 -0.25580963555E+02 -0.92841428952E+00  0.52017751846E+02  0.00000000000E+00 0.  1.
         21    1    1    2  505  501 -0.60470693742E+02  0.45353507923E+01 -0.44957714683E+00  0.60642199235E+02  0.00000000000E+00 0.  1.
         21    1    1    2  506  504  0.10404123864E+03  0.55822686401E+02 -0.43570955399E+03  0.45142393278E+03  0.00000000000E+00 0.  1.
<scales pt_clust_3="34.81924" pt_clust_4="30.20136" pt_clust_5="30.20136" pt_clust_6="116.28835"></scales>
<clustering>
<clus scale="   30.201">  4  5 -1 -1</clus>
<clus scale="   34.819">  1  3  2 -1</clus>
<clus scale="  116.288">  2  6  1 -1</clus>
<clus scale="   34.819">  1  3  2 -1</clus>
</clustering>
</event>
<event>
 6    0  0.1555973E+002  0.7694538E+02  0.7546771E-02  0.1337950E+00
         21   -1    0    0  504  501  0.00000000000E+00  0.00000000000E+00  0.10497902627E+03  0.10497902627E+03  0.00000000000E+00 0. -1.
         21   -1    0    0  506  502 -0.00000000000E+00 -0.00000000000E+00 -0.25653608601E+03  0.25653608601E+03  0.00000000000E+00 0.  1.
         21    1    1    2  503  505 -0.31069020440E+02  0.53456804005E+02 -0.21372548574E+02  0.65419414229E+02  0.00000000000E+00 0. -1.
         21    1    1    2  504  503 -0.50641339903E+02  0.98313304407E+01  0.40628655047E+02  0.65664967649E+02  0.00000000000E+00 0. -1.
         21    1    1    2  505  502  0.23550772098E+02 -0.83447998687E+02 -0.13109155932E+03  0.15717253029E+03  0.00000000000E+00 0.  1.
         21    1    1    2  506  501  0.58159588245E+02  0.20159864242E+02 -0.39721606888E+02  0.73258200120E+02  0.00000000000E+00 0.  1.
<scales pt_clust_3="14000.00000" pt_clust_4="51.58682" pt_clust_5="76.94538" pt_clust_6="47.85452"></scales>
<clustering>
<clus scale="   51.587">  1  4  2 -1</clus>
<clus scale="   47.855">  1  6  2 -1</clus>
<clus scale="   76.945">  2  5  1 -1</clus>
<clus scale="   51.587">  1  3  2 -1</clus>
</clustering>
</event>
<event>
 6    0  0.1555973E+002  0.1208333E+03  0.7546771E-02  0.1241729E+00
         21   -1    0    0  504  501  0.00000000000E+00  0.00000000000E+00  0.14945850980E+04  0.14945850980E+04  0.00000000000E+00 0. -1.
         21   -1    0    0  501  502 -0.00000000000E+00 -0.00000000000E+00 -0.44251080226E+03  0.44251080226E+03  0.00000000000E+00 0. -1.
         21    1    1    2  503  506 -0.58855943334E+02 -0.16244815481E+02  0.58215592427E+03  0.58534898673E+03  0.00000000000E+00 0. -1.
         21    1    1    2  504  503 -0.13444038993E+02  0.47955549972E+02  0.58844520250E+03  0.59054909475E+03  0.00000000000E+00 0. -1.
         21    1    1    2  505  502  0.11442749827E+03  0.35837615438E+01 -0.42996616589E+03  0.44494651310E+03  0.00000000000E+00 0. -1.
         21    1    1    2  506  505 -0.42127515946E+02 -0.35294496034E+02  0.31143933488E+03  0.31625130571E+03  0.00000000000E+00 0. -1.
<scales pt_clust_3="36.94809" pt_clust_4="49.80439" pt_clust_5="114.38552" pt_clust_6="36.94809"></scales>
<clustering>
<clus scale="   36.948">  3  6 -1 -1</clus>
<clus scale="   49.804">  1  4  2 -1</clus>
<clus scale="  114.386">  2  5  1 -1</clus>
<clus scale="   49.804">  1  3  2 -1</clus>
</clustering>
</event>
<event>
 6    0  0.1555973E+002  0.1630330E+03  0.7546771E-02  0.1185314E+00
         21   -1    0    0  506  501  0.00000000000E+00  0.00000000000E+00  0.47152067268E+03  0.47152067268E+03  0.00000000000E+00 0. -1.
         21   -1    0    0  504  502 -0.00000000000E+00 -0.00000000000E+00 -0.11680115384E+03  0.11680115384E+03  0.00000000000E+00 0. -1.
         21    1    1    2  503  505  0.41857148679E+02 -0.29282067110E+02  0.10062848416E+03  0.11285190372E+03  0.00000000000E+00 0. -1.
         21    1    1    2  504  501  0.39195484152E+02 -0.19602426528E+02  0.12877015801E+02  0.45676675007E+02  0.00000000000E+00 0. -1.
         21    1    1    2  505  502 -0.10692084549E+03  0.15144727777E+03  0.22375593233E+02  0.18673246187E+03  0.00000000000E+00 0. -1.
         21    1    1    2  506  503  0.25868212657E+02 -0.10256278413E+03  0.21883842564E+03  0.24306078592E+03  0.00000000000E+00 0. -1.
<scales pt_clust_3="35.74006" pt_clust_4="43.82398" pt_clust_5="154.70883" pt_clust_6="35.74006"></scales>
<clustering>
<clus scale="   35.740">  3  6 -1 -1</clus>
<clus scale="   43.824">  2  4  1 -1</clus>
<clus scale="  154.709">  2  5  1 -1</clus>
<clus scale="  163.033">  1  3  2 -1</clus>
</clustering>
</event>
<event>
 6    0  0.1555973E+002  0.8169901E+02  0.7546771E-02  0.1324298E+00
         21   -1    0    0  505  501  0.00000000000E+00  0.00000000000E+00  0.35980064285E+02  0.35980064285E+02  0.00000000000E+00 0. -1.
         21   -1    0    0  506  502 -0.00000000000E+00 -0.00000000000E+00 -0.91610542919E+03  0.91610542919E+03  0.00000000000E+00 0.  1.
         21    1    1    2  503  504 -0.50610208952E+02  0.24550189959E+02 -0.12654404435E+03  0.13848285178E+03  0.00000000000E+00 0.  1.
         21    1    1    2  504  502  0.20235613448E+02 -0.25232722290E+02 -0.27154767503E+03  0.27346720121E+03  0.00000000000E+00 0.  1.
         21    1    1    2  505  503 -0.52400767806E+02 -0.59024906833E+02 -0.43992011224E+02  0.90360816424E+02  0.00000000000E+00 0. -1.
         21    1    1    2  506  501  0.82775363311E+02  0.59707439163E+02 -0.43804163430E+03  0.44977462406E+03  0.00000000000E+00 0.  1.
<scales pt_clust_3="50.31540" pt_clust_4="32.34456" pt_clust_5="14000.00000" pt_clust_6="81.69901"></scales>
<clustering>
<clus scale="   32.345">  2  4  1 -1</clus>
<clus scale="   50.315">  2  3  1 -1</clus>
<clus scale="   81.699">  2  6  1 -1</clus>
<clus scale="   81.699">  1  3  2 -1</clus>
</clustering>
</event>
<event>
 6    0  0.1555973E+002  0.8363131E+02  0.7546771E-02  0.1319051E+00
         21   -1    0    0  505  501  0.00000000000E+00  0.00000000000E+00  0.29995501755E+03  0.29995501755E+03  0.00000000000E+00 0.  1.
         21   -1    0    0  503  502 -0.00000000000E+00 -0.00000000000E+00 -0.14251594070E+04  0.14251594070E+04  0.00000000000E+00 0. -1.
         21    1    1    2  503  504  0.60773338103E+02 -0.67089432035E+02  0.20813905335E+03  0.22697192788E+03  0.00000000000E+00 0.  1.
         21    1    1    2  504  501 -0.39230929685E+02  0.38124632326E+01  0.10058065266E+02  0.40678807711E+02  0.00000000000E+00 0.  1.
         21    1    1    2  505  506  0.38431696061E+02  0.50460454907E+01  0.49043498418E+02  0.62511779484E+02  0.00000000000E+00 0. -1.
         21    1    1    2  506  502 -0.59974104478E+02  0.58230923312E+02 -0.13924450065E+04  0.13949519095E+04  0.00000000000E+00 0. -1.
<scales pt_clust_3="83.63131" pt_clust_4="35.50398" pt_clust_5="38.76155" pt_clust_6="14000.00000"></scales>
<clustering>
<clus scale="   38.762">  1  5  2 -1</clus>
<clus scale="   35.504">  1  4  2 -1</clus>
<clus scale="   83.631">  1  3  2 -1</clus>
<clus scale="   38.762">  1  3  2 -1</clus>
</clustering>
</event>
<event>
 6    0  0.1555973E+002  0.1769010E+03  0.7546771E-02  0.1170836E+00
         21   -1    0    0  505  501  0.00000000000E+00  0.00000000000E+00  0.20378096341E+04  0.20378096341E+04  0.00000000000E+00 0. -1.
         21   -1    0    0  503  502 -0.00000000000E+00 -0.00000000000E+00 -0.82288694947E+02  0.82288694947E+02  0.00000000000E+00 0. -1.
         21    1    1    2  503  501  0.10847898303E+03  0.36114507071E+01  0.10348050855E+04  0.10404817621E+04  0.00000000000E+00 0. -1.
         21    1    1    2  504  502 -0.17127647781E+03 -0.95859901519E+02  0.70758859458E+02  0.20864220274E+03  0.00000000000E+00 0. -1.
         21    1    1    2  505  506 -0.35170341325E+02  0.17175667971E+02  0.46659386031E+03  0.46823262056E+03  0.00000000000E+00 0. -1.
         21    1    1    2  506  504  0.97967836109E+02  0.75072782840E+02  0.38336313385E+03  0.40274174359E+03  0.00000000000E+00 0. -1.
<scales pt_clust_3="86.54296" pt_clust_4="176.90101" pt_clust_5="39.14022" pt_clust_6="14000.00000"></scales>
<clustering>
<clus scale="   39.140">  1  5  2 -1</clus>
<clus scale="   86.543">  1  3  2 -1</clus>
<clus scale="  176.901">  2  4  1 -1</clus>
<clus scale="   39.140">  1  3  2 -1</clus>
</clustering>
</event>
<event>
 6    0  0.1555973E+002  0.4390141E+03  0.7546771E-02  0.1031050E+00
         21   -1    0    0  506  501  0.00000000000E+00  0.00000000000E+00  0.15671020029E+04  0.15671020029E+04  0.00000000000E+00 0. -1.
         21   -1    0    0  503  502 -0.00000000000E+00 -0.00000000000E+00 -0.13744886293E+03  0.13744886293E+03  0.00000000000E+00 0. -1.
         21    1    1    2  503  505 -0.48888908554E+02  0.56926697177E+02  0.15416703014E+03  0.17145917127E+03  0.00000000000E+00 0. -1.
         21    1    1    2  504  501 -0.15203534478E+03  0.11170961445E+03  0.55770075427E+03  0.58874775188E+03  0.00000000000E+00 0. -1.
         21    1    1    2  505  504 -0.50537565863E+02  0.16184384216E+03  0.35299619122E+03  0.39160411875E+03  0.00000000000E+00 0. -1.
         21    1    1    2  506  502  0.25146181920E+03 -0.33048015378E+03  0.36478916436E+03  0.55273982396E+03  0.00000000000E+00 0. -1.
<scales pt_clust_3="30.33738" pt_clust_4="113.33678" pt_clust_5="113.33678" pt_clust_6="415.27121"></scales>
<clustering>
<clus scale="   30.337">  3  5 -1 -1</clus>
<clus scale="  113.337">  3  4 -1 -1</clus>
<clus scale="  415.271">  2  6  1 -1</clus>
<clus scale="  439.014">  1  3  2 -1</clus>
</clustering>
</event>
<event>
 6    0  0.1555973E+002  0.1410240E+03  0.7546771E-02  0.1211958E+00
         21   -1    0    0  505  501  0.00000000000E+00  0.00000000000E+00  0.33467338662E+03  0.33467338662E+03  0.00000000000E+00 0.  1.
         21   -1    0    0  506  502 -0.00000000000E+00 -0.00000000000E+00 -0.55282343724E+03  0.55282343724E+03  0.00000000000E+00 0. -1.
         21    1    1    2  503  504  0.90991645614E+00  0.50524845641E+02  0.10657739390E+03  0.11795053567E+03  0.00000000000E+00 0.  1.
         21    1    1    2  504  501  0.16686650630E+01  0.77354293626E+02  0.43439470569E+02  0.88732512580E+02  0.00000000000E+00 0.  1.
         21    1    1    2  505  502  0.41350864882E+02 -0.88623877475E+01  0.14559888316E+03  0.15161619544E+03  0.00000000000E+00 0.  1.
         21    1    1    2  506  503 -0.43929446401E+02 -0.11901675152E+03 -0.51376579825E+03  0.52919758017E+03  0.00000000000E+00 0. -1.
<scales pt_clust_3="51.37653" pt_clust_4="51.37653" pt_clust_5="42.28990" pt_clust_6="126.62812"></scales>
<clustering>
<clus scale="   42.290">  1  5  2 -1</clus>
<clus scale="   51.377">  3  4 -1 -1</clus>
<clus scale="  126.628">  2  6  1 -1</clus>
<clus scale="   42.290">  1  3  2 -1</clus>
</clustering>
</event>
<event>
 6    0  0.1555973E+002  0.3108118E+03  0.7546771E-02  0.1079957E+00
         21   -1    0    0  504  501  0.00000000000E+00  0.00000000000E+00  0.23746770906E+04  0.23746770906E+04  0.00000000000E+00 0. -1.
         21   -1    0    0  503  502 -0.00000000000E+00 -0.00000000000E+00 -0.26838720292E+04  0.26838720292E+04  0.00000000000E+00 0.  1.
         21    1    1    2  503  501  0.32406969300E+02 -0.33254739959E+02 -0.19525066482E+04  0.19530587039E+04  0.00000000000E+00 0.  1.
         21    1    1    2  504  505  0.34203665339E+02  0.30935232321E+03  0.23185339157E+04  0.23393307309E+04  0.00000000000E+00 0. -1.
         21    1    1    2  505  506 -0.60254504090E+00 -0.28640143987E+03 -0.60426037686E+03  0.66869780235E+03  0.00000000000E+00 0.  1.
         21    1    1    2  506  502 -0.66008089598E+02  0.10303856611E+02 -0.70961829211E+02  0.97461882592E+02  0.00000000000E+00 0.  1.
<scales pt_clust_3="46.43371" pt_clust_4="310.81179" pt_clust_5="14000.00000" pt_clust_6="62.61077"></scales>
<clustering>
<clus scale="   46.434">  2  3  1 -1</clus>
<clus scale="   62.611">  2  6  1 -1</clus>
<clus scale="  310.812">  1  4  2 -1</clus>
<clus scale="  310.812">  1  3  2 -1</clus>
</clustering>
</event>
<event>
 6    0  0.1555973E+002  0.1326639E+03  0.7546771E-02  0.1223556E+00
         21   -1    0    0  506  501  0.00000000000E+00  0.00000000000E+00  0.74344689623E+02  0.74344689623E+02  0.00000000000E+00 0. -1.
         21   -1    0    0  504  502 -0.00000000000E+00 -0.00000000000E+00 -0.46571750751E+03  0.46571750751E+03  0.00000000000E+00 0. -1.
         21    1    1    2  503  505  0.84648385084E+02 -0.43750125879E+02 -0.92969701929E+01  0.95738478505E+02  0.00000000000E+00 0. -1.
         21    1    1    2  504  501 -0.58166060909E+02  0.11249962209E+02 -0.81327643652E+02  0.10061827823E+03  0.00000000000E+00 0. -1.
         21    1    1    2  505  502 -0.41163852806E+02  0.76495855829E+02 -0.27950207111E+03  0.29269008609E+03  0.00000000000E+00 0. -1.
         21    1    1    2  506  503  0.14681528631E+02 -0.43995692160E+02 -0.21246132934E+02  0.51015354318E+02  0.00000000000E+00 0. -1.
<scales pt_clust_3="38.45486" pt_clust_4="59.24401" pt_clust_5="120.67171" pt_clust_6="38.45486"></scales>
<clustering>
<clus scale="   38.455">  3  6 -1 -1</clus>
<clus scale="   59.244">  2  4  1 -1</clus>
<clus scale="  120.672">  2  5  1 -1</clus>
<clus scale="  132.664">  1  3  2 -1</clus>
</clustering>
</event>
<event>
 6    0  0.1555973E+002  0.7124511E+02  0.7546771E-02  0.1355909E+00
         21   -1    0    0  505  501  0.00000000000E+00  0.00000000000E+00  0.37614681045E+03  0.37614681045E+03  0.00000000000E+00 0.  1.
         21   -1    0    0  503  502 -0.00000000000E+00 -0.00000000000E+00 -0.23129418130E+03  0.23129418130E+03  0.00000000000E+00 0.  1.
         21    1    1    2  503  501 -0.94982078711E+02 -0.15873088877E+02  0.98739239543E+02  0.13792384729E+03  0.00000000000E+00 0.  1.
         21    1    1    2  504  506  0.60147795601E+02 -0.83708634552E+01 -0.55865406816E+01  0.60983916793E+02  0.00000000000E+00 0.  1.
         21    1    1    2  505  504  0.31207695015E+02  0.56957637481E+02  0.22394449015E+03  0.23317209817E+03  0.00000000000E+00 0.  1.
         21    1    1    2  506  502  0.36265880954E+01 -0.32713685148E+02 -0.17224455986E+03  0.17536112950E+03  0.00000000000E+00 0.  1.
<scales pt_clust_3="14000.00000" pt_clust_4="71.24511" pt_clust_5="62.80262" pt_clust_6="32.91409"></scales>
<clustering>
<clus scale="   32.914">  2  6  1 -1</clus>
<clus scale="   62.803">  1  5  2 -1</clus>
<clus scale="   71.245">  2  4  1 -1</clus>
<clus scale="   62.803">  1  3  2 -1</clus>
</clustering>
</event>
<event>
 6    0  0.1555973E+002  0.1654187E+03  0.7546771E-02  0.1182711E+00
         21   -1    0    0  505  501  0.00000000000E+00  0.00000000000E+00  0.66716995131E+03  0.66716995131E+03  0.00000000000E+00 0. -1.
         21   -1    0    0  504  502 -0.00000000000E+00 -0.00000000000E+00 -0.51319454316E+03  0.51319454316E+03  0.00000000000E+00 0. -1.
         21    1    1    2  503  506 -0.10604784642E+02  0.50540499631E+02  0.16538253521E+03  0.17325757274E+03  0.00000000000E+00 0. -1.
         21    1    1    2  504  501  0.62897327685E+02  0.46867762287E+02  0.15363377383E+03  0.17249926792E+03  0.00000000000E+00 0. -1.
         21    1    1    2  505  503  0.10304010868E+02  0.52753460378E+02  0.31923883528E+03  0.32373219514E+03  0.00000000000E+00 0. -1.
         21    1    1    2  506  502 -0.62596553911E+02 -0.15016172230E+03 -0.48427973617E+03  0.51087545867E+03  0.00000000000E+00 0. -1.
<scales pt_clust_3="37.59642" pt_clust_4="78.43890" pt_clust_5="37.59642" pt_clust_6="160.91033"></scales>
<clustering>
<clus scale="   37.596">  3  5 -1 -1</clus>
<clus scale="   78.439">  1  4  2 -1</clus>
<clus scale="  160.910">  2  6  1 -1</clus>
<clus scale="   78.439">  1  3  2 -1</clus>
</clustering>
</event>
<event>
 6    0  0.1555973E+002  0.1121749E+03  0.7546771E-02  0.1256594E+00
         21   -1    0    0  505  501  0.00000000000E+00  0.00000000000E+00  0.62446337190E+03  0.62446337190E+03  0.00000000000E+00 0. -1.
         21   -1    0    0  506  502 -0.00000000000E+00 -0.00000000000E+00 -0.12215186595E+03  0.12215186595E+03  0.00000000000E+00 0. -1.
         21    1    1    2  503  501  0.84404747486E+02  0.93299876459E+02  0.29748381291E+03  0.32299481000E+03  0.00000000000E+00 0. -1.
         21    1    1    2  504  502 -0.32827997254E+02 -0.28061751104E+02 -0.84032874743E+02  0.94481020932E+02  0.00000000000E+00 0. -1.
         21    1    1    2  505  504 -0.86714319406E+02 -0.56522321818E+02  0.26814343299E+03  0.28742833317E+03  0.00000000000E+00 0. -1.
         21    1    1    2  506  503  0.35137569174E+02 -0.87158035369E+01  0.20717134794E+02  0.41711073744E+02  0.00000000000E+00 0. -1.
<scales pt_clust_3="112.17491" pt_clust_4="35.34828" pt_clust_5="14000.00000" pt_clust_6="36.20240"></scales>
<clustering>
<clus scale="   36.202">  2  6  1 -1</clus>
<clus scale="   35.348">  2  4  1 -1</clus>
<clus scale="  112.175">  2  3  1 -1</clus>
<clus scale="  112.175">  1  3  2 -1</clus>
</clustering>
</event>
<event>
 6    0  0.1555973E+002  0.1593513E+03  0.7546771E-02  0.1189431E+00
         21   -1    0    0  506  501  0.00000000000E+00  0.00000000000E+00  0.24482496363E+04  0.24482496363E+04  0.00000000000E+00 0. -1.
         21   -1    0    0  505  502 -0.00000000000E+00 -0.00000000000E+00 -0.20709419639E+03  0.20709419639E+03  0.00000000000E+00 0. -1.
         21    1    1    2  503  504  0.53113660126E+02 -0.90639918945E+02  0.16789242103E+04  0.16822078230E+04  0.00000000000E+00 0. -1.
         21    1    1    2  504  502 -0.16637258546E+03  0.15572449162E+03  0.57250351828E+03  0.61619009480E+03  0.00000000000E+00 0. -1.
         21    1    1    2  505  501  0.81948595094E+02 -0.24098753969E+02 -0.16937338578E+03  0.18969361083E+03  0.00000000000E+00 0. -1.
         21    1    1    2  506  503  0.31310330237E+02 -0.40985818703E+02  0.15910109713E+03  0.16725230409E+03  0.00000000000E+00 0. -1.
<scales pt_clust_3="14000.00000" pt_clust_4="159.35132" pt_clust_5="85.60359" pt_clust_6="51.57688"></scales>
<clustering>
<clus scale="   51.577">  1  6  2 -1</clus>
<clus scale="   85.604">  2  5  1 -1</clus>
<clus scale="  159.351">  2  4  1 -1</clus>
<clus scale="   51.577">  1  3  2 -1</clus>
</clustering>
</event>
<event>
 6    0  0.1555973E+002  0.1513540E+03  0.7546771E-02  0.1198819E+00
         21   -1    0    0  506  501  0.00000000000E+00  0.00000000000E+00  0.41099849771E+03  0.41099849771E+03  0.00000000000E+00 0.  1.
         21   -1    0    0  504  502 -0.00000000000E+00 -0.00000000000E+00 -0.45566816555E+03  0.45566816555E+03  0.00000000000E+00 0.  1.
         21    1    1    2  503  502  0.20552021774E+02 -0.44254358374E+02  0.12464753650E+03  0.13385754439E+03  0.00000000000E+00 0.  1.
         21    1    1    2  504  505 -0.10844546220E+03  0.10119938277E+03 -0.40876866202E+03  0.43484888456E+03  0.00000000000E+00 0.  1.
         21    1    1    2  505  501  0.57937326746E+02 -0.30486335624E+02  0.11425704845E+02  0.66458236672E+02  0.00000000000E+00 0.  1.
         21    1    1    2  506  503  0.29956113683E+02 -0.26458688776E+02  0.22802575284E+03  0.23150199765E+03  0.00000000000E+00 0.  1.
<scales pt_clust_3="35.72075" pt_clust_4="146.11745" pt_clust_5="65.46870" pt_clust_6="35.72075"></scales>
<clustering>
<clus scale="   35.721">  3  6 -1 -1</clus>
<clus scale="   65.469">  1  5  2 -1</clus>
<clus scale="  146.117">  2  4  1 -1</clus>
<clus scale="   65.469">  1  3  2 -1</clus>
</clustering>
</event>
<event>
 6    0  0.1555973E+002  0.2337372E+03  0.7546771E-02  0.1124037E+00
         21   -1    0    0  503  501  0.00000000000E+00  0.00000000000E+00  0.73791772136E+03  0.73791772136E+03  0.00000000000E+00 0. -1.
         21   -1    0    0  504  502 -0.00000000000E+00 -0.00000000000E+00 -0.34124722975E+03  0.34124722975E+03  0.00000000000E+00 0. -1.
         21    1    1    2  503  505  0.17280287388E+03 -0.76613390232E+02  0.26013305457E+02  0.19080654299E+03  0.00000000000E+00 0. -1.
         21    1    1    2  504  506 -0.16684048682E+03  0.62545786146E+01  0.32174730300E+03  0.36248613047E+03  0.00000000000E+00 0. -1.
         21    1    1    2  505  502  0.61524553044E+02  0.75165237569E+02 -0.22428969494E+03  0.24441962038E+03  0.00000000000E+00 0. -1.
         21    1    1    2  506  501 -0.67486940107E+02 -0.48064259518E+01  0.27319957810E+03  0.28145265728E+03  0.00000000000E+00 0. -1.
<scales pt_clust_3="221.01845" pt_clust_4="48.41362" pt_clust_5="97.13436" pt_clust_6="48.41362"></scales>
<clustering>
<clus scale="   48.414">  4  6 -1 -1</clus>
<clus scale="   97.134">  2  5  1 -1</clus>
<clus scale="  221.018">  2  3  1 -1</clus>
<clus scale="  233.737">  1  3  2 -1</clus>
</clustering>
</event>
<event>
 6    0  0.1555973E+002  0.2837418E+03  0.7546771E-02  0.1093663E+00
         21   -1    0    0  503  501  0.00000000000E+00  0.00000000000E+00  0.82186046719E+03  0.82186046719E+03  0.00000000000E+00 0.  1.
         21   -1    0    0  505  502 -0.00000000000E+00 -0.00000000000E+00 -0.19764090879E+04  0.19764090879E+04  0.00000000000E+00 0.  1.
         21    1    1    2  503  504  0.12125942940E+03 -0.18577855402E+03 -0.13772152980E+03  0.26112207896E+03  0.00000000000E+00 0.  1.
         21    1    1    2  504  502  0.58621296968E+02 -0.10495012882E+02 -0.49465510623E+02  0.77417301004E+02  0.00000000000E+00 0.  1.
         21    1    1    2  505  506 -0.59298883829E+02 -0.44203160111E+02 -0.16884636145E+04  0.16900827360E+04  0.00000000000E+00 0.  1.
         21    1    1    2  506  501 -0.12058184254E+03  0.24047672702E+03  0.72110203416E+03  0.76964743919E+03  0.00000000000E+00 0.  1.
<scales pt_clust_3="48.29714" pt_clust_4="48.29714" pt_clust_5="73.96132" pt_clust_6="267.99228"></scales>
<clustering>
<clus scale="   48.297">  3  4 -1 -1</clus>
<clus scale="   73.961">  2  5  1 -1</clus>
<clus scale="  267.992">  1  6  2 -1</clus>
<clus scale="  267.992">  1  3  2 -1</clus>
</clustering>
</event>
<event>
 6    0  0.1555973E+002  0.9328065E+02  0.7546771E-02  0.1295096E+00
         21   -1    0    0  505  501  0.00000000000E+00  0.00000000000E+00  0.20800812410E+02  0.20800812410E+02  0.00000000000E+00 0.  1.
         21   -1    0    0  504  502 -0.00000000000E+00 -0.00000000000E+00 -0.34246862164E+04  0.34246862164E+04  0.00000000000E+00 0.  1.
         21    1    1    2  503  501 -0.55467671703E+02  0.75620939929E+01 -0.23527525798E+03  0.24184353390E+03  0.00000000000E+00 0.  1.
         21    1    1    2  504  503  0.55006388435E+02  0.76661682735E+02 -0.29721637611E+04  0.29736610666E+04  0.00000000000E+00 0.  1.
         21    1    1    2  505  506  0.38267027201E+02 -0.15788017504E+02 -0.66933434450E+02  0.78700136689E+02  0.00000000000E+00 0.  1.
         21    1    1    2  506  502 -0.37805743933E+02 -0.68435759224E+02 -0.12951295046E+03  0.15128229160E+03  0.00000000000E+00 0.  1.
<scales pt_clust_3="47.22018" pt_clust_4="93.28065" pt_clust_5="41.39598" pt_clust_6="14000.00000"></scales>
<clustering>
<clus scale="   41.396">  1  5  2 -1</clus>
<clus scale="   47.220">  1  3  2 -1</clus>
<clus scale="   93.281">  2  4  1 -1</clus>
<clus scale="   41.396">  1  3  2 -1</clus>
</clustering>
</event>
<event>
 6    0  0.1555973E+002  0.3643425E+03  0.7546771E-02  0.1056878E+00
         21   -1    0    0  505  501  0.00000000000E+00  0.00000000000E+00  0.13330906675E+04  0.13330906675E+04  0.00000000000E+00 0.  1.
         21   -1    0    0  504  502 -0.00000000000E+00 -0.00000000000E+00 -0.69531637852E+03  0.69531637852E+03  0.00000000000E+00 0. -1.
         21    1    1    2  503  502  0.71153059471E+02 -0.70882212048E+00 -0.57345925093E+03  0.57785705221E+03  0.00000000000E+00 0. -1.
         21    1    1    2  504  506 -0.21102347697E+03 -0.10622325561E+03  0.51192748485E+03  0.56381205877E+03  0.00000000000E+00 0.  1.
         21    1    1    2  505  503  0.26095853229E+03  0.16518491167E+03  0.19596578285E+03  0.36577041798E+03  0.00000000000E+00 0.  1.
         21    1    1    2  506  501 -0.12108811479E+03 -0.58252833937E+02  0.50334027219E+03  0.52096751704E+03  0.00000000000E+00 0.  1.
<scales pt_clust_3="71.15659" pt_clust_4="70.05075" pt_clust_5="352.30359" pt_clust_6="70.05075"></scales>
<clustering>
<clus scale="   70.051">  4  6 -1 -1</clus>
<clus scale="   71.157">  2  3  1 -1</clus>
<clus scale="  352.304">  2  5  1 -1</clus>
<clus scale="  364.342">  1  3  2 -1</clus>
</clustering>
</event>
<event>
 6    0  0.1555973E+002  0.1035801E+03  0.7546771E-02  0.1272943E+00
         21   -1    0    0  504  501  0.00000000000E+00  0.00000000000E+00  0.12666457398E+03  0.12666457398E+03  0.00000000000E+00 0.  1.
         21   -1    0    0  503  502 -0.00000000000E+00 -0.00000000000E+00 -0.25210249664E+03  0.25210249664E+03  0.00000000000E+00 0.  1.
         21    1    1    2  503  505  0.15894159497E+02  0.27013321897E+02 -0.63567551623E+02  0.70874378201E+02  0.00000000000E+00 0.  1.
         21    1    1    2  504  502  0.59995186684E+02 -0.10376357632E+03 -0.93527890765E+02  0.15203212998E+03  0.00000000000E+00 0.  1.
         21    1    1    2  505  506 -0.94330853997E+02  0.26451282461E+02  0.29211926166E+02  0.10223168291E+03  0.00000000000E+00 0.  1.
         21    1    1    2  506  501  0.18441507816E+02  0.50298971966E+02  0.24455935626E+01  0.53628879526E+02  0.00000000000E+00 0.  1.
<scales pt_clust_3="31.34237" pt_clust_4="103.58013" pt_clust_5="14000.00000" pt_clust_6="57.84638"></scales>
<clustering>
<clus scale="   31.342">  2  3  1 -1</clus>
<clus scale="   57.846">  1  6  2 -1</clus>
<clus scale="  103.580">  2  4  1 -1</clus>
<clus scale="   57.846">  1  3  2 -1</clus>
</clustering>
</event>
<event>
 6    0  0.1555973E+002  0.8529893E+02  0.7546771E-02  0.1314653E+00
         21   -1    0    0  506  501  0.00000000000E+00  0.00000000000E+00  0.35998287420E+02  0.35998287420E+02  0.00000000000E+00 0.  1.
         21   -1    0    0  505  502 -0.00000000000E+00 -0.00000000000E+00 -0.86076395915E+03  0.86076395915E+03  0.00000000000E+00 0.  1.
         21    1    1    2  503  504 -0.27904705629E+02  0.89963298586E+02 -0.91400672142E+02  0.13124843068E+03  0.00000000000E+00 0.  1.
         21    1    1    2  504  502  0.38416465000E+02 -0.94175514811E+01 -0.36789553649E+03  0.37001573051E+03  0.00000000000E+00 0.  1.
         21    1    1    2  505  501 -0.45326230568E+02 -0.77186483669E+02 -0.34165064145E+03  0.35318179631E+03  0.00000000000E+00 0.  1.
         21    1    1    2  506  503  0.34814471197E+02 -0.33592634357E+01 -0.23818821647E+02  0.42316289065E+02  0.00000000000E+00 0.  1.
<scales pt_clust_3="14000.00000" pt_clust_4="40.92617" pt_clust_5="85.29893" pt_clust_6="34.97616"></scales>
<clustering>
<clus scale="   34.976">  1  6  2 -1</clus>
<clus scale="   40.926">  2  4  1 -1</clus>
<clus scale="   85.299">  2  5  1 -1</clus>
<clus scale="   34.976">  1  3  2 -1</clus>
</clustering>
</event>
<event>
 6    0  0.1555973E+002  0.2035771E+03  0.7546771E-02  0.1146756E+00
         21   -1    0    0  502  501  0.00000000000E+00  0.00000000000E+00  0.62088537155E+03  0.62088537155E+03  0.00000000000E+00 0.  1.
         21   -1    0    0  503  502 -0.00000000000E+00 -0.00000000000E+00 -0.71646138655E+03  0.71646138655E+03  0.00000000000E+00 0. -1.
         21    1    1    2  503  506  0.97224499688E+01 -0.35865451973E+02 -0.55196738493E+03  0.55321682070E+03  0.00000000000E+00 0. -1.
         21    1    1    2  504  501 -0.11394711478E+03 -0.15836835484E+03  0.51516334736E+03  0.55086999850E+03  0.00000000000E+00 0.  1.
         21    1    1    2  505  504  0.44336788727E+02  0.97170879558E+02 -0.43681931489E+01  0.10689720193E+03  0.00000000000E+00 0.  1.
         21    1    1    2  506  505  0.59887876087E+02  0.97062927258E+02 -0.54403784285E+02  0.12636273697E+03  0.00000000000E+00 0. -1.
<scales pt_clust_3="37.15988" pt_clust_4="197.67934" pt_clust_5="47.74640" pt_clust_6="47.74640"></scales>
<clustering>
<clus scale="   37.160">  2  3  1 -1</clus>
<clus scale="   47.746">  5  6 -1 -1</clus>
<clus scale="  197.679">  1  4  2 -1</clus>
<clus scale="  197.679">  1  3  2 -1</clus>
</clustering>
</event>
<event>
 6    0  0.1555973E+002  0.2313355E+03  0.7546771E-02  0.1125703E+00
         21   -1    0    0  503  501  0.00000000000E+00  0.00000000000E+00  0.75035676081E+03  0.75035676081E+03  0.00000000000E+00 0.  1.
         21   -1    0    0  505  502 -0.00000000000E+00 -0.00000000000E+00 -0.65945042130E+03  0.65945042130E+03  0.00000000000E+00 0.  1.
         21    1    1    2  503  506  0.28641226284E+02 -0.11743066067E+03  0.10722655900E+03  0.16157912880E+03  0.00000000000E+00 0.  1.
         21    1    1    2  504  502  0.22533718697E+02  0.29499983544E+02 -0.56308292177E+03  0.56430523150E+03  0.00000000000E+00 0.  1.
         21    1    1    2  505  501 -0.38759188002E+02  0.20762996254E+03  0.51912405962E+03  0.56044827173E+03  0.00000000000E+00 0.  1.
         21    1    1    2  506  504 -0.12415756979E+02 -0.11969928542E+03  0.27638642652E+02  0.12347455009E+03  0.00000000000E+00 0.  1.
<scales pt_clust_3="77.60117" pt_clust_4="37.12166" pt_clust_5="216.66341" pt_clust_6="77.60117"></scales>
<clustering>
<clus scale="   37.122">  2  4  1 -1</clus>
<clus scale="   77.601">  3  6 -1 -1</clus>
<clus scale="  216.663">  1  5  2 -1</clus>
<clus scale="  216.663">  1  3  2 -1</clus>
</clustering>
</event>
<event>
 6    0  0.1555973E+002  0.3453796E+03  0.7546771E-02  0.1064528E+00
         21   -1    0    0  504  501  0.00000000000E+00  0.00000000000E+00  0.34059260126E+03  0.34059260126E+03  0.00000000000E+00 0.  1.
         21   -1    0    0  506  502 -0.00000000000E+00 -0.00000000000E+00 -0.53932457007E+03  0.53932457007E+03  0.00000000000E+00 0.  1.
         21    1    1    2  503  501 -0.66639070777E+02 -0.15132970817E+03  0.10272514701E+03  0.19466356145E+03  0.00000000000E+00 0.  1.
         21    1    1    2  504  502  0.14376948151E+03  0.28604649854E+03 -0.37424907174E+03  0.49249835618E+03  0.00000000000E+00 0.  1.
         21    1    1    2  505  503 -0.18137712514E+02 -0.11225710359E+03  0.59139640256E+02  0.12817227068E+03  0.00000000000E+00 0.  1.
         21    1    1    2  506  505 -0.58992698222E+02 -0.22459686790E+02  0.13652315666E+02  0.64582983032E+02  0.00000000000E+00 0. -1.
<scales pt_clust_3="58.82947" pt_clust_4="320.14413" pt_clust_5="30.55584" pt_clust_6="58.82947"></scales>
<clustering>
<clus scale="   30.556">  3  5 -1 -1</clus>
<clus scale="   58.829">  3  6 -1 -1</clus>
<clus scale="  320.144">  2  4  1 -1</clus>
<clus scale="  345.380">  1  3  2 -1</clus>
</clustering>
</event>
<event>
 6    0  0.1555973E+002  0.9420988E+02  0.7546771E-02  0.1292966E+00
         21   -1    0    0  506  501  0.00000000000E+00  0.00000000000E+00  0.14068359483E+03  0.14068359483E+03  0.00000000000E+00 0.  1.
         21   -1    0    0  505  502 -0.00000000000E+00 -0.00000000000E+00 -0.61002594425E+03  0.61002594425E+03  0.00000000000E+00 0.  1.
         21    1    1    2  503  502 -0.38575691168E+02 -0.18632444357E+02 -0.45467332500E+03  0.45668707492E+03  0.00000000000E+00 0.  1.
         21    1    1    2  504  503  0.66043808812E+02 -0.22287791549E+02  0.60776518761E+02  0.92478730350E+02  0.00000000000E+00 0.  1.
         21    1    1    2  505  501 -0.41431920317E+02  0.93241120481E+02 -0.99294560849E+02  0.14237247060E+03  0.00000000000E+00 0.  1.
         21    1    1    2  506  504  0.13963802673E+02 -0.52320884575E+02  0.23849017663E+02  0.59171263222E+02  0.00000000000E+00 0.  1.
<scales pt_clust_3="42.83984" pt_clust_4="14000.00000" pt_clust_5="94.20988" pt_clust_6="55.28397"></scales>
<clustering>
<clus scale="   42.840">  2  3  1 -1</clus>
<clus scale="   55.284">  1  6  2 -1</clus>
<clus scale="   94.210">  2  5  1 -1</clus>
<clus scale="   55.284">  1  3  2 -1</clus>
</clustering>
</event>
<event>
 6    0  0.1555973E+002  0.2304951E+03  0.7546771E-02  0.1126292E+00
         21   -1    0    0  503  501  0.00000000000E+00  0.00000000000E+00  0.20822874268E+03  0.20822874268E+03  0.00000000000E+00 0.  1.
         21   -1    0    0  506  502 -0.00000000000E+00 -0.00000000000E+00 -0.11015537172E+04  0.11015537172E+04  0.00000000000E+00 0. -1.
         21    1    1    2  503  504 -0.41148760350E+02 -0.41897882077E+02  0.11183296372E+02  0.59780591487E+02  0.00000000000E+00 0. -1.
         21    1    1    2  504  505 -0.36015908592E+02 -0.41168137060E+02  0.45426092448E+02  0.71101976455E+02  0.00000000000E+00 0.  1.
         21    1    1    2  505  502 -0.11082437233E+03  0.13910820219E+02  0.75024383378E+02  0.13455188785E+03  0.00000000000E+00 0.  1.
         21    1    1    2  506  501  0.18798904128E+03  0.69155198918E+02 -0.10249587467E+04  0.10443480040E+04  0.00000000000E+00 0. -1.
<scales pt_clust_3="102.93200" pt_clust_4="31.58835" pt_clust_5="102.93200" pt_clust_6="200.30557"></scales>
<clustering>
<clus scale="   31.588">  3  4 -1 -1</clus>
<clus scale="  102.932">  3  5 -1 -1</clus>
<clus scale="  200.306">  2  6  1 -1</clus>
<clus scale="  230.495">  1  3  2 -1</clus>
</clustering>
</event>
<event>
 6    0  0.1555973E+002  0.1273855E+03  0.7546771E-02  0.1231388E+00
         21   -1    0    0  505  501  0.00000000000E+00  0.00000000000E+00  0.22442676067E+03  0.22442676067E+03  0.00000000000E+00 0. -1.
         21   -1    0    0  501  502 -0.00000000000E+00 -0.00000000000E+00 -0.24233531766E+03  0.24233531766E+03  0.00000000000E+00 0. -1.
         21    1    1    2  503  506  0.57029303602E+02 -0.14224698529E+02  0.94863113521E+02  0.11159611922E+03  0.00000000000E+00 0. -1.
         21    1    1    2  504  502 -0.98557285631E+02 -0.56846000745E+02 -0.18994552620E+03  0.22141433846E+03  0.00000000000E+00 0. -1.
         21    1    1    2  505  503 -0.17148005930E+02  0.36674648065E+02  0.21401721466E+02  0.45794296585E+02  0.00000000000E+00 0. -1.
         21    1    1    2  506  504  0.58675987959E+02  0.34396051209E+02  0.55772134219E+02  0.87957324068E+02  0.00000000000E+00 0. -1.
<scales pt_clust_3="47.50795" pt_clust_4="113.53878" pt_clust_5="40.48560" pt_clust_6="47.50795"></scales>
<clustering>
<clus scale="   40.486">  1  5  2 -1</clus>
<clus scale="   47.508">  3  6 -1 -1</clus>
<clus scale="  113.539">  2  4  1 -1</clus>
<clus scale="   40.486">  1  3  2 -1</clus>
</clustering>
</event>
<event>
 6    0  0.1555973E+002  0.1328959E+03  0.7546771E-02  0.1223221E+00
         21   -1    0    0  502  501  0.00000000000E+00  0.00000000000E+00  0.81994023127E+03  0.81994023127E+03  0.00000000000E+00 0.  1.
         21   -1    0    0  506  502 -0.00000000000E+00 -0.00000000000E+00 -0.15285089717E+03  0.15285089717E+03  0.00000000000E+00 0.  1.
         21    1    1    2  503  504 -0.23044337873E+02  0.25975312044E+02  0.10687753993E+03  0.11237689658E+03  0.00000000000E+00 0. -1.
         21    1    1    2  504  501 -0.30460349761E+02  0.85201678941E+02  0.61420306768E+03  0.62083215715E+03  0.00000000000E+00 0.  1.
         21    1    1    2  505  503  0.85660621991E+02 -0.95932413653E+02  0.43524311980E+02  0.13577605047E+03  0.00000000000E+00 0.  1.
         21    1    1    2  506  505 -0.32155934357E+02 -0.15244577333E+02 -0.97515585497E+02  0.10380602423E+03  0.00000000000E+00 0.  1.
<scales pt_clust_3="30.44446" pt_clust_4="30.44446" pt_clust_5="123.47523" pt_clust_6="35.58653"></scales>
<clustering>
<clus scale="   30.444">  3  4 -1 -1</clus>
<clus scale="   35.587">  2  6  1 -1</clus>
<clus scale="  123.475">  2  5  1 -1</clus>
<clus scale="  132.896">  1  3  2 -1</clus>
</clustering>
</event>
<event>
 6    0  0.1555973E+002  0.9438205E+02  0.7546771E-02  0.1292574E+00
         21   -1    0    0  504  501  0.00000000000E+00  0.00000000000E+00  0.14215429538E+04  0.14215429538E+04  0.00000000000E+00 0.  1.
         21   -1    0    0  503  502 -0.00000000000E+00 -0.00000000000E+00 -0.21949151571E+03  0.21949151571E+03  0.00000000000E+00 0.  1.
         21    1    1    2  503  506  0.53002968373E+02  0.39023891535E+02 -0.20288965614E+03  0.21329883107E+03  0.00000000000E+00 0.  1.
         21    1    1    2  504  502 -0.31314042851E+02  0.77311245417E+02  0.21559993896E+03  0.23117294744E+03  0.00000000000E+00 0. -1.
         21    1    1    2  505  501 -0.15336832774E+02 -0.37430374371E+02  0.19939908227E+03  0.20346067280E+03  0.00000000000E+00 0. -1.
         21    1    1    2  506  505 -0.63520927475E+01 -0.78904762581E+02  0.98994207304E+03  0.99310201823E+03  0.00000000000E+00 0.  1.
<scales pt_clust_3="65.67200" pt_clust_4="94.38205" pt_clust_5="40.45060" pt_clust_6="14000.00000"></scales>
<clustering>
<clus scale="   40.451">  1  5  2 -1</clus>
<clus scale="   65.672">  2  3  1 -1</clus>
<clus scale="   94.382">  2  4  1 -1</clus>
<clus scale="   40.451">  1  3  2 -1</clus>
</clustering>
</event>
<event>
 6    0  0.1555973E+002  0.1797017E+03  0.7546771E-02  0.1168092E+00
         21   -1    0    0  504  501  0.00000000000E+00  0.00000000000E+00  0.27880171199E+03  0.27880171199E+03  0.00000000000E+00 0.  1.
         21   -1    0    0  506  502 -0.00000000000E+00 -0.00000000000E+00 -0.70425627077E+03  0.70425627077E+03  0.00000000000E+00 0.  1.
         21    1    1    2  503  501  0.16732626334E+03 -0.94385182787E+02  0.17363997566E+03  0.25895459502E+03  0.00000000000E+00 0.  1.
         21    1    1    2  504  505  0.64226831825E+01  0.34912917969E+02  0.35791850571E+02  0.50410507513E+02  0.00000000000E+00 0.  1.
         21    1    1    2  505  502 -0.56956841589E+02  0.16824692560E+02 -0.56081124621E+02  0.81683808813E+02  0.00000000000E+00 0. -1.
         21    1    1    2  506  503 -0.11679210494E+03  0.42647572258E+02 -0.57880526038E+03  0.59200907142E+03  0.00000000000E+00 0.  1.
<scales pt_clust_3="14000.00000" pt_clust_4="35.49877" pt_clust_5="59.62331" pt_clust_6="179.70168"></scales>
<clustering>
<clus scale="   35.499">  1  4  2 -1</clus>
<clus scale="   59.623">  2  5  1 -1</clus>
<clus scale="  179.702">  2  6  1 -1</clus>
<clus scale="   35.499">  1  3  2 -1</clus>
</clustering>
</event>
<event>
 6    0  0.1555973E+002  0.1800627E+03  0.7546771E-02  0.1167742E+00
         21   -1    0    0  506  501  0.00000000000E+00  0.00000000000E+00  0.25282448908E+03  0.25282448908E+03  0.00000000000E+00 0. -1.
         21   -1    0    0  503  502 -0.00000000000E+00 -0.00000000000E+00 -0.99092583324E+03  0.99092583324E+03  0.00000000000E+00 0. -1.
         21    1    1    2  503  505 -0.34262458887E+02  0.59208332279E+02  0.23144571342E+02  0.72216437761E+02  0.00000000000E+00 0. -1.
         21    1    1    2  504  502  0.48703440051E+02  0.43009460823E+02 -0.82192506939E+03  0.82448933195E+03  0.00000000000E+00 0. -1.
         21    1    1    2  505  501 -0.83084562990E+02  0.58599271880E+02  0.12464992004E+03  0.16085559312E+03  0.00000000000E+00 0. -1.
         21    1    1    2  506  504  0.68643581826E+02 -0.16081706498E+03 -0.63970766155E+02  0.18618895949E+03  0.00000000000E+00 0. -1.
<scales pt_clust_3="57.00919" pt_clust_4="64.97568" pt_clust_5="57.00919" pt_clust_6="166.10887"></scales>
<clustering>
<clus scale="   57.009">  3  5 -1 -1</clus>
<clus scale="   64.976">  2  4  1 -1</clus>
<clus scale="  166.109">  2  6  1 -1</clus>
<clus scale="  180.063">  1  3  2 -1</clus>
</clustering>
</event>
<event>
 6    0  0.1555973E+002  0.1427755E+03  0.7546771E-02  0.1209642E+00
         21   -1    0    0  506  501  0.00000000000E+00  0.00000000000E+00  0.26802763247E+03  0.26802763247E+03  0.00000000000E+00 0. -1.
         21   -1    0    0  505  502 -0.00000000000E+00 -0.00000000000E+00 -0.24418146259E+03  0.24418146259E+03  0.00000000000E+00 0. -1.
         21    1    1    2  503  504  0.28778366366E+02  0.14796073528E+02  0.76732722911E+01  0.33256537255E+02  0.00000000000E+00 0. -1.
         21    1    1    2  504  501  0.40979703915E+02 -0.64747678631E+02  0.94046628253E+02  0.12131103127E+03  0.00000000000E+00 0. -1.
         21    1    1    2  505  503  0.70822607830E+02  0.23583460028E+02  0.10290153429E+03  0.12712492724E+03  0.00000000000E+00 0. -1.
         21    1    1    2  506  502 -0.14058067811E+03  0.26368145075E+02 -0.18077526495E+03  0.23051659930E+03  0.00000000000E+00 0. -1.
<scales pt_clust_3="30.18705" pt_clust_4="76.62635" pt_clust_5="30.18705" pt_clust_6="135.21376"></scales>
<clustering>
<clus scale="   30.187">  3  5 -1 -1</clus>
<clus scale="   76.626">  1  4  2 -1</clus>
<clus scale="  135.214">  2  6  1 -1</clus>
<clus scale="   76.626">  1  3  2 -1</clus>
</clustering>
</event>
<event>
 6    0  0.1555973E+002  0.2259229E+03  0.7546771E-02  0.1129543E+00
         21   -1    0    0  504  501  0.00000000000E+00  0.00000000000E+00  0.54283645998E+03  0.54283645998E+03  0.00000000000E+00 0.  1.
         21   -1    0    0  503  502 -0.00000000000E+00 -0.00000000000E+00 -0.68761891183E+03  0.68761891183E+03  0.00000000000E+00 0. -1.
         21    1    1    2  503  506 -0.35455626088E+02 -0.70494878615E+01 -0.43796712391E+03  0.43945648058E+03  0.00000000000E+00 0.  1.
         21    1    1    2  504  505  0.12237117699E+01  0.86666205613E+02 -0.92326704679E+02  0.12663628652E+03  0.00000000000E+00 0. -1.
         21    1    1    2  505  502 -0.69290979387E+02  0.10943402302E+03 -0.79394448848E+02  0.15192275579E+03  0.00000000000E+00 0. -1.
         21    1    1    2  506  501  0.10352289370E+03 -0.18905074077E+03  0.46490582558E+03  0.51243984892E+03  0.00000000000E+00 0.  1.
<scales pt_clust_3="36.14964" pt_clust_4="55.83932" pt_clust_5="55.83932" pt_clust_6="214.52889"></scales>
<clustering>
<clus scale="   36.150">  2  3  1 -1</clus>
<clus scale="   55.839">  4  5 -1 -1</clus>
<clus scale="  214.529">  1  6  2 -1</clus>
<clus scale="  214.529">  1  3  2 -1</clus>
</clustering>
</event>
<event>
 6    0  0.1555973E+002  0.1360612E+03  0.7546771E-02  0.1218729E+00
         21   -1    0    0  504  501  0.00000000000E+00  0.00000000000E+00  0.28026339157E+02  0.28026339157E+02  0.00000000000E+00 0.  1.
         21   -1    0    0  506  502 -0.00000000000E+00 -0.00000000000E+00 -0.13564651464E+04  0.13564651464E+04  0.00000000000E+00 0.  1.
         21    1    1    2  503  502  0.25863778304E+02  0.61140130747E+02 -0.25215354786E+03  0.26074597277E+03  0.00000000000E+00 0.  1.
         21    1    1    2  504  503 -0.13951316273E+03  0.33812054442E+01 -0.83281027085E+03  0.84442187463E+03  0.00000000000E+00 0.  1.
         21    1    1    2  505  501  0.49204046259E+02 -0.46856810137E+02 -0.98169112760E+02  0.11938916837E+03  0.00000000000E+00 0.  1.
         21    1    1    2  506  505  0.64445338162E+02 -0.17664526054E+02 -0.14530587577E+03  0.15993446978E+03  0.00000000000E+00 0. -1.
<scales pt_clust_3="66.38562" pt_clust_4="129.80831" pt_clust_5="40.43463" pt_clust_6="40.43463"></scales>
<clustering>
<clus scale="   40.435">  5  6 -1 -1</clus>
<clus scale="   66.386">  2  3  1 -1</clus>
<clus scale="  129.808">  2  4  1 -1</clus>
<clus scale="  136.061">  1  3  2 -1</clus>
</clustering>
</event>
<event>
 6    0  0.1555973E+002  0.1117326E+03  0.7546771E-02  0.1257395E+00
         21   -1    0    0  503  501  0.00000000000E+00  0.00000000000E+00  0.35183381433E+03  0.35183381433E+03  0.00000000000E+00 0. -1.
         21   -1    0    0  505  502 -0.00000000000E+00 -0.00000000000E+00 -0.12523822076E+03  0.12523822076E+03  0.00000000000E+00 0. -1.
         21    1    1    2  503  504  0.86321439799E+01  0.40025581315E+02  0.64857601889E+02  0.76701170735E+02  0.00000000000E+00 0. -1.
         21    1    1    2  504  502 -0.15242206542E+02 -0.95692071753E+02  0.31520615920E+02  0.10189625452E+03  0.00000000000E+00 0. -1.
         21    1    1    2  505  506  0.11287338941E+03  0.17030692356E+02 -0.14231809407E+02  0.11503473788E+03  0.00000000000E+00 0. -1.
         21    1    1    2  506  501 -0.10626332685E+03  0.38635798081E+02  0.14444918517E+03  0.18343987195E+03  0.00000000000E+00 0. -1.
<scales pt_clust_3="40.94583" pt_clust_4="87.19588" pt_clust_5="14000.00000" pt_clust_6="111.73261"></scales>
<clustering>
<clus scale="   40.946">  1  3  2 -1</clus>
<clus scale="   87.196">  2  4  1 -1</clus>
<clus scale="  111.733">  1  6  2 -1</clus>
<clus scale="   40.946">  1  3  2 -1</clus>
</clustering>
</event>
<event>
 6    0  0.1555973E+002  0.1206446E+03  0.7546771E-02  0.1242037E+00
         21   -1    0    0  505  501  0.00000000000E+00  0.00000000000E+00  0.41218860421E+03  0.41218860421E+03  0.00000000000E+00 0. -1.
         21   -1    0    0  504  502 -0.00000000000E+00 -0.00000000000E+00 -0.23438743723E+03  0.23438743723E+03  0.00000000000E+00 0. -1.
         21    1    1    2  503  502 -0.92770260968E+02 -0.25228305660E+02  0.71433791505E+02  0.11977301572E+03  0.00000000000E+00 0. -1.
         21    1    1    2  504  506 -0.48825067322E+02 -0.40199542800E+01 -0.17733349269E+03  0.18397612579E+03  0.00000000000E+00 0. -1.
         21    1    1    2  505  503  0.14849269897E+03 -0.13370593041E+02  0.21328305767E+03  0.26022781768E+03  0.00000000000E+00 0. -1.
         21    1    1    2  506  501 -0.68973706848E+01  0.42618852981E+02  0.70417810497E+02  0.82599082240E+02  0.00000000000E+00 0. -1.
<scales pt_clust_3="120.64462" pt_clust_4="49.02554" pt_clust_5="14000.00000" pt_clust_6="43.17338"></scales>
<clustering>
<clus scale="   43.173">  1  6  2 -1</clus>
<clus scale="   49.026">  2  4  1 -1</clus>
<clus scale="  120.645">  2  3  1 -1</clus>
<clus scale="   43.173">  1  3  2 -1</clus>
</clustering>
</event>
<event>
 6    0  0.1555973E+002  0.7817150E+02  0.7546771E-02  0.1334322E+00
         21   -1    0    0  504  501  0.00000000000E+00  0.00000000000E+00  0.12882617293E+03  0.12882617293E+03  0.00000000000E+00 0. -1.
         21   -1    0    0  505  502 -0.00000000000E+00 -0.00000000000E+00 -0.51329342689E+03  0.51329342689E+03  0.00000000000E+00 0. -1.
         21    1    1    2  503  502 -0.15146649849E+02  0.59538457649E+02 -0.44099067749E+02  0.75623916305E+02  0.00000000000E+00 0. -1.
         21    1    1    2  504  506  0.75173064194E+01  0.65069575558E+02  0.37169144103E+02  0.75313377513E+02  0.00000000000E+00 0. -1.
         21    1    1    2  505  501  0.33877768421E+02 -0.29076123012E+01 -0.36441039187E+03  0.36599329379E+03  0.00000000000E+00 0. -1.
         21    1    1    2  506  503 -0.26248424992E+02 -0.12170042091E+03 -0.13126938444E+02  0.12518901220E+03  0.00000000000E+00 0. -1.
<scales pt_clust_3="58.38122" pt_clust_4="78.17150" pt_clust_5="34.00231" pt_clust_6="14000.00000"></scales>
<clustering>
<clus scale="   34.002">  2  5  1 -1</clus>
<clus scale="   58.381">  2  3  1 -1</clus>
<clus scale="   78.172">  1  4  2 -1</clus>
<clus scale="   78.172">  1  3  2 -1</clus>
</clustering>
</event>
<event>
 6    0  0.1555973E+002  0.1060253E+03  0.7546771E-02  0.1268113E+00
         21   -1    0    0  504  501  0.00000000000E+00  0.00000000000E+00  0.83783638586E+02  0.83783638586E+02  0.00000000000E+00 0. -1.
         21   -1    0    0  505  502 -0.00000000000E+00 -0.00000000000E+00 -0.41161352963E+03  0.41161352963E+03  0.00000000000E+00 0. -1.
         21    1    1    2  503  506 -0.70403990277E+02 -0.12739479589E+02 -0.41909318315E+02  0.82918074922E+02  0.00000000000E+00 0. -1.
         21    1    1    2  504  503 -0.43523509076E+02  0.25777769473E+02 -0.38680620510E+02  0.63678722069E+02  0.00000000000E+00 0. -1.
         21    1    1    2  505  501  0.61306179207E+02  0.74761063125E+02 -0.18825893879E+02  0.98499129178E+02  0.00000000000E+00 0. -1.
         21    1    1    2  506  502  0.52621320146E+02 -0.87799353009E+02 -0.22841405834E+03  0.25030124204E+03  0.00000000000E+00 0. -1.
<scales pt_clust_3="36.13068" pt_clust_4="36.13068" pt_clust_5="96.68332" pt_clust_6="96.92757"></scales>
<clustering>
<clus scale="   36.131">  3  4 -1 -1</clus>
<clus scale="   96.683">  1  5  2 -1</clus>
<clus scale="   96.928">  2  6  1 -1</clus>
<clus scale="   96.683">  1  3  2 -1</clus>
</clustering>
</event>
<event>
 6    0  0.1555973E+002  0.1213195E+03  0.7546771E-02  0.1240936E+00
         21   -1    0    0  506  501  0.00000000000E+00  0.00000000000E+00  0.51910015186E+03  0.51910015186E+03  0.00000000000E+00 0. -1.
         21   -1    0    0  504  502 -0.00000000000E+00 -0.00000000000E+00 -0.23097070652E+03  0.23097070652E+03  0.00000000000E+00 0. -1.
         21    1    1    2  503  502 -0.28258282794E+02  0.88624964494E+02 -0.95964975770E+02  0.13364950974E+03  0.00000000000E+00 0. -1.
         21    1    1    2  504  505 -0.58296680918E+02  0.54074085629E+01 -0.96987688499E+02  0.11328881142E+03  0.00000000000E+00 0. -1.
         21    1    1    2  505  501 -0.35175128165E+01 -0.38297248351E+02  0.88150017929E+02  0.96174205422E+02  0.00000000000E+00 0.  1.
         21    1    1    2  506  503  0.90072476528E+02 -0.55735124705E+02  0.39293209168E+03  0.40695833180E+03  0.00000000000E+00 0. -1.
<scales pt_clust_3="14000.00000" pt_clust_4="58.55087" pt_clust_5="38.45845" pt_clust_6="121.31951"></scales>
<clustering>
<clus scale="   38.458">  1  5  2 -1</clus>
<clus scale="   58.551">  2  4  1 -1</clus>
<clus scale="  121.320">  1  6  2 -1</clus>
<clus scale="   38.458">  1  3  2 -1</clus>
</clustering>
</event>
<event>
 6    0  0.1555973E+002  0.1077666E+03  0.7546771E-02  0.1264763E+00
         21   -1    0    0  505  501  0.00000000000E+00  0.00000000000E+00  0.68430426393E+03  0.68430426393E+03  0.00000000000E+00 0.  1.
         21   -1    0    0  506  502 -0.00000000000E+00 -0.00000000000E+00 -0.44272027495E+03  0.44272027495E+03  0.00000000000E+00 0. -1.
         21    1    1    2  503  504  0.63871507598E+02 -0.21228972151E+02 -0.27428286807E+02  0.72681150642E+02  0.00000000000E+00 0.  1.
         21    1    1    2  504  501 -0.22896393482E+02 -0.44004186239E+02  0.25625485679E+02  0.55832595832E+02  0.00000000000E+00 0.  1.
         21    1    1    2  505  502 -0.10273800424E+03  0.50347760657E+02  0.61294496471E+03  0.62353149422E+03  0.00000000000E+00 0.  1.
         21    1    1    2  506  503  0.61762890122E+02  0.14885397733E+02 -0.36955817460E+03  0.37497929820E+03  0.00000000000E+00 0. -1.
<scales pt_clust_3="107.76660" pt_clust_4="49.60457" pt_clust_5="14000.00000" pt_clust_6="63.39435"></scales>
<clustering>
<clus scale="   49.605">  1  4  2 -1</clus>
<clus scale="   63.394">  2  6  1 -1</clus>
<clus scale="  107.767">  2  3  1 -1</clus>
<clus scale="   49.605">  1  3  2 -1</clus>
</clustering>
</event>
<event>
 6    0  0.1555973E+002  0.9626847E+02  0.7546771E-02  0.1288344E+00
         21   -1    0    0  506  501  0.00000000000E+00  0.00000000000E+00  0.67151112858E+03  0.67151112858E+03  0.00000000000E+00 0. -1.
         21   -1    0    0  504  502 -0.00000000000E+00 -0.00000000000E+00 -0.12911022345E+03  0.12911022345E+03  0.00000000000E+00 0.  1.
         21    1    1    2  503  501  0.14760126320E+02 -0.77320608389E+02  0.41430870758E+03  0.42172033741E+03  0.00000000000E+00 0. -1.
         21    1    1    2  504  503 -0.68892849122E+02  0.43637447145E+02 -0.40130731124E+01  0.81648981680E+02  0.00000000000E+00 0.  1.
         21    1    1    2  505  502 -0.33316734889E+02  0.13226526972E+02 -0.68582322032E+02  0.77385274664E+02  0.00000000000E+00 0.  1.
         21    1    1    2  506  505  0.87449457691E+02  0.20456634272E+02  0.20068759269E+03  0.21986675828E+03  0.00000000000E+00 0. -1.
<scales pt_clust_3="77.47228" pt_clust_4="14000.00000" pt_clust_5="35.84614" pt_clust_6="96.26847"></scales>
<clustering>
<clus scale="   35.846">  2  5  1 -1</clus>
<clus scale="   77.472">  1  3  2 -1</clus>
<clus scale="   96.268">  1  6  2 -1</clus>
<clus scale="   77.472">  1  3  2 -1</clus>
</clustering>
</event>
<event>
 6    0  0.1555973E+002  0.1122015E+03  0.7546771E-02  0.1256547E+00
         21   -1    0    0  505  501  0.00000000000E+00  0.00000000000E+00  0.19897077780E+03  0.19897077780E+03  0.00000000000E+00 0.  1.
         21   -1    0    0  504  502 -0.00000000000E+00 -0.00000000000E+00 -0.43648787938E+03  0.43648787938E+03  0.00000000000E+00 0.  1.
         21    1    1    2  503  502 -0.42548578339E+02 -0.11452768847E+03 -0.38791894649E+03  0.40670392424E+03  0.00000000000E+00 0.  1.
         21    1    1    2  504  506 -0.32528286895E+01  0.63915889111E+02  0.29346560187E+02  0.70406266554E+02  0.00000000000E+00 0.  1.
         21    1    1    2  505  503  0.28883215578E+02  0.82115855453E+01  0.11532293166E+01  0.30049962016E+02  0.00000000000E+00 0.  1.
         21    1    1    2  506  501  0.16918191450E+02  0.42400213818E+02  0.11990205540E+03  0.12829850437E+03  0.00000000000E+00 0.  1.
<scales pt_clust_3="14000.00000" pt_clust_4="112.20148" pt_clust_5="30.02783" pt_clust_6="60.24686"></scales>
<clustering>
<clus scale="   30.028">  1  5  2 -1</clus>
<clus scale="   60.247">  1  6  2 -1</clus>
<clus scale="  112.201">  1  4  2 -1</clus>
<clus scale="   30.028">  1  3  2 -1</clus>
</clustering>
</event>
<event>
 6    0  0.1555973E+002  0.1111706E+03  0.7546771E-02  0.1258417E+00
         21   -1    0    0  506  501  0.00000000000E+00  0.00000000000E+00  0.38296883078E+02  0.38296883078E+02  0.00000000000E+00 0.  1.
         21   -1    0    0  504  502 -0.00000000000E+00 -0.00000000000E+00 -0.18371756791E+04  0.18371756791E+04  0.00000000000E+00 0. -1.
         21    1    1    2  503  505 -0.45654920407E+02  0.49185409808E+02 -0.87119699835E+02  0.10997007954E+03  0.00000000000E+00 0.  1.
         21    1    1    2  504  503  0.99901389939E+02 -0.17795793090E+02 -0.14843135719E+04  0.14877781278E+04  0.00000000000E+00 0. -1.
         21    1    1    2  505  501 -0.85713142126E+02  0.27886971006E+02 -0.10756835853E+03  0.14034022104E+03  0.00000000000E+00 0.  1.
         21    1    1    2  506  502  0.31466672594E+02 -0.59276587724E+02 -0.11987716575E+03  0.13738413374E+03  0.00000000000E+00 0.  1.
<scales pt_clust_3="34.01566" pt_clust_4="103.94621" pt_clust_5="34.01566" pt_clust_6="67.11084"></scales>
<clustering>
<clus scale="   34.016">  3  5 -1 -1</clus>
<clus scale="   67.111">  1  6  2 -1</clus>
<clus scale="  103.946">  2  4  1 -1</clus>
<clus scale="   67.111">  1  3  2 -1</clus>
</clustering>
</event>
<event>
 6    0  0.1555973E+002  0.7075372E+02  0.7546771E-02  0.1357549E+00
         21   -1    0    0  505  501  0.00000000000E+00  0.00000000000E+00  0.26575734832E+03  0.26575734832E+03  0.00000000000E+00 0. -1.
         21   -1    0    0  506  502 -0.00000000000E+00 -0.00000000000E+00 -0.32933382927E+03  0.32933382927E+03  0.00000000000E+00 0.  1.
         21    1    1    2  503  501  0.47595774523E+02  0.56239483853E+02  0.15892679347E+03  0.17517409334E+03  0.00000000000E+00 0. -1.
         21    1    1    2  504  502  0.59800620419E+02 -0.99039368762E+01  0.54917814437E+02  0.81793450293E+02  0.00000000000E+00 0. -1.
         21    1    1    2  505  504 -0.36093017676E+02 -0.40395306551E+02 -0.27003179168E+01  0.54238163991E+02  0.00000000000E+00 0.  1.
         21    1    1    2  506  503 -0.71303377267E+02 -0.59402404255E+01 -0.27472077094E+03  0.28388546996E+03  0.00000000000E+00 0.  1.
<scales pt_clust_3="35.99731" pt_clust_4="14000.00000" pt_clust_5="54.17090" pt_clust_6="70.75372"></scales>
<clustering>
<clus scale="   54.171">  1  5  2 -1</clus>
<clus scale="   35.997">  1  3  2 -1</clus>
<clus scale="   70.754">  2  6  1 -1</clus>
<clus scale="   54.171">  1  3  2 -1</clus>
</clustering>
</event>
<event>
 6    0  0.1555973E+002  0.1322607E+03  0.7546771E-02  0.1224139E+00
         21   -1    0    0  506  501  0.00000000000E+00  0.00000000000E+00  0.23431537633E+03  0.23431537633E+03  0.00000000000E+00 0. -1.
         21   -1    0    0  504  502 -0.00000000000E+00 -0.00000000000E+00 -0.21450696597E+03  0.21450696597E+03  0.00000000000E+00 0.  1.
         21    1    1    2  503  505  0.58722659241E+01  0.39716170570E+02  0.73825713013E+01  0.40821073857E+02  0.00000000000E+00 0.  1.
         21    1    1    2  504  503 -0.16188002755E+02 -0.13366178481E+03 -0.15780235896E+03  0.20743458884E+03  0.00000000000E+00 0.  1.
         21    1    1    2  505  501  0.21932302257E+02  0.51789487258E+02  0.61312510388E+02  0.83200966357E+02  0.00000000000E+00 0. -1.
         21    1    1    2  506  502 -0.11616565426E+02  0.42156126983E+02  0.10891568763E+03  0.11736571325E+03  0.00000000000E+00 0. -1.
<scales pt_clust_3="32.89734" pt_clust_4="126.39948" pt_clust_5="32.89734" pt_clust_6="43.72738"></scales>
<clustering>
<clus scale="   32.897">  3  5 -1 -1</clus>
<clus scale="   43.727">  1  6  2 -1</clus>
<clus scale="  126.399">  2  4  1 -1</clus>
<clus scale="   43.727">  1  3  2 -1</clus>
</clustering>
</event>
<event>
 6    0  0.1555973E+002  0.1078155E+03  0.7546771E-02  0.1264670E+00
         21   -1    0    0  504  501  0.00000000000E+00  0.00000000000E+00  0.54909288837E+03  0.54909288837E+03  0.00000000000E+00 0. -1.
         21   -1    0    0  503  502 -0.00000000000E+00 -0.00000000000E+00 -0.71590909893E+02  0.71590909893E+02  0.00000000000E+00 0.  1.
         21    1    1    2  503  505  0.74264760058E+02  0.76114965304E+01 -0.18528971314E+02  0.76918867931E+02  0.00000000000E+00 0.  1.
         21    1    1    2  504  502 -0.68180599553E+02 -0.95120511794E+02  0.34503407081E+03  0.36434189430E+03  0.00000000000E+00 0. -1.
         21    1    1    2  505  506 -0.29281959171E+01  0.32026824450E+02  0.22000429974E+02  0.38965506986E+02  0.00000000000E+00 0. -1.
         21    1    1    2  506  501 -0.31559645879E+01  0.55482190813E+02  0.12899644900E+03  0.14045752904E+03  0.00000000000E+00 0. -1.
<scales pt_clust_3="74.65380" pt_clust_4="99.63157" pt_clust_5="31.34489" pt_clust_6="31.34489"></scales>
<clustering>
<clus scale="   31.345">  5  6 -1 -1</clus>
<clus scale="   74.654">  2  3  1 -1</clus>
<clus scale="   99.632">  1  4  2 -1</clus>
<clus scale="   99.632">  1  3  2 -1</clus>
</clustering>
</event>
<event>
 6    0  0.1555973E+002  0.1099121E+03  0.7546771E-02  0.1260733E+00
         21   -1    0    0  504  501  0.00000000000E+00  0.00000000000E+00  0.84092108279E+03  0.84092108279E+03  0.00000000000E+00 0.  1.
         21   -1    0    0  506  502 -0.00000000000E+00 -0.00000000000E+00 -0.27134746691E+03  0.27134746691E+03  0.00000000000E+00 0.  1.
         21    1    1    2  503  501 -0.61150321846E+01  0.14443258685E+03  0.71747011262E+03  0.73188901363E+03  0.00000000000E+00 0.  1.
         21    1    1    2  504  505 -0.29822706817E+02 -0.29385126457E+02  0.49346820206E+02  0.64714667296E+02  0.00000000000E+00 0. -1.
         21    1    1    2  505  502  0.74739867663E+01 -0.79052214910E+02  0.29211323705E+02  0.84607414527E+02  0.00000000000E+00 0.  1.
         21    1    1    2  506  503  0.28463752235E+02 -0.35995245486E+02 -0.22645464065E+03  0.23105745424E+03  0.00000000000E+00 0.  1.
<scales pt_clust_3="14000.00000" pt_clust_4="41.86740" pt_clust_5="109.91214" pt_clust_6="45.90299"></scales>
<clustering>
<clus scale="   41.867">  1  4  2 -1</clus>
<clus scale="   45.903">  2  6  1 -1</clus>
<clus scale="  109.912">  2  5  1 -1</clus>
<clus scale="   41.867">  1  3  2 -1</clus>
</clustering>
</event>
<event>
 6    0  0.1555973E+002  0.1217356E+03  0.7546771E-02  0.1240261E+00
         21   -1    0    0  505  501  0.00000000000E+00  0.00000000000E+00  0.99539752614E+03  0.99539752614E+03  0.00000000000E+00 0. -1.
         21   -1    0    0  504  502 -0.00000000000E+00 -0.00000000000E+00 -0.31118963975E+03  0.31118963975E+03  0.00000000000E+00 0. -1.
         21    1    1    2  503  506  0.12708245933E+03 -0.73523531886E+02  0.16500047582E+03  0.22086380019E+03  0.00000000000E+00 0. -1.
         21    1    1    2  504  501 -0.38016733353E+02  0.70108052746E+01  0.94758482155E+02  0.10234057527E+03  0.00000000000E+00 0. -1.
         21    1    1    2  505  503 -0.92983907909E+02 -0.40908227293E+02  0.68971970646E+03  0.69716050065E+03  0.00000000000E+00 0. -1.
         21    1    1    2  506  502  0.39181819321E+01  0.10742095391E+03 -0.26527077805E+03  0.28622228979E+03  0.00000000000E+00 0. -1.
<scales pt_clust_3="121.73564" pt_clust_4="38.65777" pt_clust_5="14000.00000" pt_clust_6="107.55897"></scales>
<clustering>
<clus scale="   38.658">  1  4  2 -1</clus>
<clus scale="  107.559">  2  6  1 -1</clus>
<clus scale="  121.736">  2  3  1 -1</clus>
<clus scale="   38.658">  1  3  2 -1</clus>
</clustering>
</event>
<event>
 6    0  0.1555973E+002  0.8380516E+02  0.7546771E-02  0.1318587E+00
         21   -1    0    0  503  501  0.00000000000E+00  0.00000000000E+00  0.94562593328E+03  0.94562593328E+03  0.00000000000E+00 0.  1.
         21   -1    0    0  506  502 -0.00000000000E+00 -0.00000000000E+00 -0.13357711046E+04  0.13357711046E+04  0.00000000000E+00 0.  1.
         21    1    1    2  503  502  0.13577222387E+01  0.31909532884E+02  0.39770723177E+03  0.39898759868E+03  0.00000000000E+00 0. -1.
         21    1    1    2  504  501  0.30973022642E+02 -0.60308825586E+02  0.39228125639E+03  0.39809680568E+03  0.00000000000E+00 0.  1.
         21    1    1    2  505  504 -0.39959055373E+02 -0.55280433605E+02  0.14304133207E+03  0.15847231659E+03  0.00000000000E+00 0.  1.
         21    1    1    2  506  505  0.76283104928E+01  0.83679726307E+02 -0.13231749915E+04  0.13258403169E+04  0.00000000000E+00 0.  1.
<scales pt_clust_3="31.93840" pt_clust_4="49.09023" pt_clust_5="83.80516" pt_clust_6="14000.00000"></scales>
<clustering>
<clus scale="   31.938">  1  3  2 -1</clus>
<clus scale="   49.090">  1  4  2 -1</clus>
<clus scale="   83.805">  1  5  2 -1</clus>
<clus scale="   31.938">  1  3  2 -1</clus>
</clustering>
</event>
<event>
 6    0  0.1555973E+002  0.3417005E+03  0.7546771E-02  0.1066074E+00
         21   -1    0    0  505  501  0.00000000000E+00  0.00000000000E+00  0.10771446794E+04  0.10771446794E+04  0.00000000000E+00 0. -1.
         21   -1    0    0  501  502 -0.00000000000E+00 -0.00000000000E+00 -0.12996266150E+03  0.12996266150E+03  0.00000000000E+00 0. -1.
         21    1    1    2  503  502  0.42822732174E+02 -0.32123293251E+03  0.18821126338E+03  0.37476374289E+03  0.00000000000E+00 0. -1.
         21    1    1    2  504  503  0.26415438068E+02  0.71262726972E+02  0.14372661013E+03  0.16258379403E+03  0.00000000000E+00 0.  1.
         21    1    1    2  505  506 -0.40891446797E+02  0.14815082815E+03  0.42782481952E+03  0.45459306473E+03  0.00000000000E+00 0. -1.
         21    1    1    2  506  504 -0.28346723445E+02  0.10181937738E+03  0.18741932485E+03  0.21516673923E+03  0.00000000000E+00 0. -1.
<scales pt_clust_3="324.07466" pt_clust_4="49.06644" pt_clust_5="49.06644" pt_clust_6="43.67522"></scales>
<clustering>
<clus scale="   43.675">  5  6 -1 -1</clus>
<clus scale="   49.066">  4  5 -1 -1</clus>
<clus scale="  324.075">  2  3  1 -1</clus>
<clus scale="  341.701">  1  3  2 -1</clus>
</clustering>
</event>
<event>
 6    0  0.1555973E+002  0.1256661E+03  0.7546771E-02  0.1234032E+00
         21   -1    0    0  503  501  0.00000000000E+00  0.00000000000E+00  0.14334952530E+03  0.14334952530E+03  0.00000000000E+00 0.  1.
         21   -1    0    0  505  502 -0.00000000000E+00 -0.00000000000E+00 -0.73067447571E+03  0.73067447571E+03  0.00000000000E+00 0. -1.
         21    1    1    2  503  502  0.29921983484E+02  0.69446169989E+02 -0.47981633800E+03  0.48573842120E+03  0.00000000000E+00 0. -1.
         21    1    1    2  504  501  0.95125777426E+02  0.44349311210E+02  0.77806063204E+02  0.13065052012E+03  0.00000000000E+00 0.  1.
         21    1    1    2  505  506 -0.49289289334E+02 -0.28439710629E+02 -0.10032028913E+03  0.11533608106E+03  0.00000000000E+00 0. -1.
         21    1    1    2  506  504 -0.75758471576E+02 -0.85355770571E+02 -0.84994386477E+02  0.14229897863E+03  0.00000000000E+00 0.  1.
<scales pt_clust_3="75.61809" pt_clust_4="111.10372" pt_clust_5="41.46326" pt_clust_6="41.46326"></scales>
<clustering>
<clus scale="   41.463">  5  6 -1 -1</clus>
<clus scale="   75.618">  2  3  1 -1</clus>
<clus scale="  111.104">  1  4  2 -1</clus>
<clus scale="  111.104">  1  3  2 -1</clus>
</clustering>
</event>
<event>
 6    0  0.1555973E+002  0.1931702E+03  0.7546771E-02  0.1155633E+00
         21   -1    0    0  506  501  0.00000000000E+00  0.00000000000E+00  0.14158319398E+04  0.14158319398E+04  0.00000000000E+00 0. -1.
         21   -1    0    0  503  502 -0.00000000000E+00 -0.00000000000E+00 -0.18896950072E+03  0.18896950072E+03  0.00000000000E+00 0. -1.
         21    1    1    2  503  501 -0.15865497418E+03  0.91096109888E+02 -0.10173015956E+03  0.20932970987E+03  0.00000000000E+00 0. -1.
         21    1    1    2  504  502  0.57507977104E+02 -0.10137685934E+03  0.14723802803E+03  0.18778570749E+03  0.00000000000E+00 0. -1.
         21    1    1    2  505  504  0.73578306756E+02 -0.66149130292E+02  0.20162569298E+03  0.22459384393E+03  0.00000000000E+00 0. -1.
         21    1    1    2  506  505  0.27568690318E+02  0.76429879740E+02  0.97972887767E+03  0.98309217927E+03  0.00000000000E+00 0. -1.
<scales pt_clust_3="184.96566" pt_clust_4="51.31925" pt_clust_5="51.31925" pt_clust_6="81.24998"></scales>
<clustering>
<clus scale="   51.319">  4  5 -1 -1</clus>
<clus scale="   81.250">  1  6  2 -1</clus>
<clus scale="  184.966">  2  3  1 -1</clus>
<clus scale="   81.250">  1  3  2 -1</clus>
</clustering>
</event>
<event>
 6    0  0.1555973E+002  0.9193687E+02  0.7546771E-02  0.1298228E+00
         21   -1    0    0  506  501  0.00000000000E+00  0.00000000000E+00  0.11267297420E+04  0.11267297420E+04  0.00000000000E+00 0. -1.
         21   -1    0    0  503  502 -0.00000000000E+00 -0.00000000000E+00 -0.42398080372E+03  0.42398080372E+03  0.00000000000E+00 0. -1.
         21    1    1    2  503  505 -0.21328944195E+02  0.54644845269E+02 -0.40026006465E+03  0.40453566262E+03  0.00000000000E+00 0. -1.
         21    1    1    2  504  501 -0.69408942929E+02 -0.39292907908E+01  0.35393504451E+03  0.36069801277E+03  0.00000000000E+00 0. -1.
         21    1    1    2  505  504  0.50308274034E+02  0.76210871680E+02  0.43219458373E+03  0.44173654773E+03  0.00000000000E+00 0. -1.
         21    1    1    2  506  502  0.40429613090E+02 -0.12692642616E+03  0.31687937464E+03  0.34374032255E+03  0.00000000000E+00 0. -1.
<scales pt_clust_3="58.65989" pt_clust_4="72.89795" pt_clust_5="91.93687" pt_clust_6="14000.00000"></scales>
<clustering>
<clus scale="   58.660">  2  3  1 -1</clus>
<clus scale="   72.898">  1  4  2 -1</clus>
<clus scale="   91.937">  1  5  2 -1</clus>
<clus scale="   72.898">  1  3  2 -1</clus>
</clustering>
</event>
<event>
 6    0  0.1555973E+002  0.1108148E+03  0.7546771E-02  0.1259068E+00
         21   -1    0    0  503  501  0.00000000000E+00  0.00000000000E+00  0.79841708216E+03  0.79841708216E+03  0.00000000000E+00 0.  1.
         21   -1    0    0  505  502 -0.00000000000E+00 -0.00000000000E+00 -0.26815250616E+02  0.26815250616E+02  0.00000000000E+00 0.  1.
         21    1    1    2  503  506  0.47860246151E+02 -0.13754926520E+02  0.22338549110E+03  0.22886869336E+03  0.00000000000E+00 0.  1.
         21    1    1    2  504  502  0.44332458908E+02  0.33436538555E+02  0.17979065544E+03  0.18817026547E+03  0.00000000000E+00 0.  1.
         21    1    1    2  505  501 -0.10009426978E+03 -0.53057081426E+02  0.15476360792E+03  0.19179596208E+03  0.00000000000E+00 0.  1.
         21    1    1    2  506  504  0.79015647171E+01  0.33375469391E+02  0.21366207708E+03  0.21639741187E+03  0.00000000000E+00 0. -1.
<scales pt_clust_3="49.79760" pt_clust_4="32.19122" pt_clust_5="102.96704" pt_clust_6="32.19122"></scales>
<clustering>
<clus scale="   32.191">  4  6 -1 -1</clus>
<clus scale="   49.798">  1  3  2 -1</clus>
<clus scale="  102.967">  2  5  1 -1</clus>
<clus scale="   49.798">  1  3  2 -1</clus>
</clustering>
</event>
<event>
 6    0  0.1555973E+002  0.7065699E+02  0.7546771E-02  0.1357873E+00
         21   -1    0    0  504  501  0.00000000000E+00  0.00000000000E+00  0.20808535718E+03  0.20808535718E+03  0.00000000000E+00 0. -1.
         21   -1    0    0  505  502 -0.00000000000E+00 -0.00000000000E+00 -0.15174802263E+03  0.15174802263E+03  0.00000000000E+00 0. -1.
         21    1    1    2  503  502  0.72827410196E+01  0.74512240645E+02  0.81513613184E+01  0.75309740499E+02  0.00000000000E+00 0. -1.
         21    1    1    2  504  506  0.83324511423E+02 -0.10312789196E+01  0.10236944802E+03  0.13199826373E+03  0.00000000000E+00 0. -1.
         21    1    1    2  505  501 -0.41716873687E+02 -0.41067564665E+02 -0.70503421286E+02  0.91638282561E+02  0.00000000000E+00 0. -1.
         21    1    1    2  506  503 -0.48890378755E+02 -0.32413397061E+02  0.16319946500E+02  0.60887093030E+02  0.00000000000E+00 0. -1.
<scales pt_clust_3="56.41158" pt_clust_4="70.65699" pt_clust_5="58.53924" pt_clust_6="14000.00000"></scales>
<clustering>
<clus scale="   58.539">  2  5  1 -1</clus>
<clus scale="   56.412">  2  3  1 -1</clus>
<clus scale="   70.657">  1  4  2 -1</clus>
<clus scale="   70.657">  1  3  2 -1</clus>
</clustering>
</event>
<event>
 6    0  0.1555973E+002  0.7496096E+02  0.7546771E-02  0.1343992E+00
         21   -1    0    0  502  501  0.00000000000E+00  0.00000000000E+00  0.54131922030E+03  0.54131922030E+03  0.00000000000E+00 0. -1.
         21   -1    0    0  505  502 -0.00000000000E+00 -0.00000000000E+00 -0.14886799610E+03  0.14886799610E+03  0.00000000000E+00 0. -1.
         21    1    1    2  503  504 -0.74276089973E+02  0.91987466295E+01  0.68818046751E+02  0.10167338904E+03  0.00000000000E+00 0. -1.
         21    1    1    2  504  506 -0.15917785374E+02 -0.76139649962E+02  0.10426579132E+03  0.13008450110E+03  0.00000000000E+00 0. -1.
         21    1    1    2  505  503  0.49477666398E+02  0.35992524421E+01 -0.10994446912E+03  0.12061832523E+03  0.00000000000E+00 0. -1.
         21    1    1    2  506  501  0.40716208949E+02  0.63341650890E+02  0.32931185525E+03  0.33781100103E+03  0.00000000000E+00 0. -1.
<scales pt_clust_3="51.26107" pt_clust_4="14000.00000" pt_clust_5="49.60841" pt_clust_6="74.96096"></scales>
<clustering>
<clus scale="   49.608">  2  5  1 -1</clus>
<clus scale="   51.261">  2  3  1 -1</clus>
<clus scale="   74.961">  1  6  2 -1</clus>
<clus scale="   74.961">  1  3  2 -1</clus>
</clustering>
</event>
<event>
 6    0  0.1555973E+002  0.8779480E+02  0.7546771E-02  0.1308282E+00
         21   -1    0    0  503  501  0.00000000000E+00  0.00000000000E+00  0.10765985030E+03  0.10765985030E+03  0.00000000000E+00 0. -1.
         21   -1    0    0  506  502 -0.00000000000E+00 -0.00000000000E+00 -0.76005405015E+03  0.76005405015E+03  0.00000000000E+00 0.  1.
         21    1    1    2  503  505  0.28946731021E+02 -0.39307130847E+02  0.64773177475E+02  0.81108127167E+02  0.00000000000E+00 0. -1.
         21    1    1    2  504  502 -0.90748609900E+02  0.29744372471E+01 -0.60866271468E+03  0.61539780445E+03  0.00000000000E+00 0.  1.
         21    1    1    2  505  504  0.67930929795E+02  0.68752535073E+02 -0.95104798028E+02  0.13559662573E+03  0.00000000000E+00 0. -1.
         21    1    1    2  506  501 -0.61290509156E+01 -0.32419841474E+02 -0.13399864621E+02  0.35611343111E+02  0.00000000000E+00 0. -1.
<scales pt_clust_3="68.27534" pt_clust_4="87.79480" pt_clust_5="14000.00000" pt_clust_6="32.99411"></scales>
<clustering>
<clus scale="   32.994">  1  6  2 -1</clus>
<clus scale="   68.275">  1  3  2 -1</clus>
<clus scale="   87.795">  2  4  1 -1</clus>
<clus scale="   32.994">  1  3  2 -1</clus>
</clustering>
</event>
<event>
 6    0  0.1555973E+002  0.2183078E+03  0.7546771E-02  0.1135151E+00
         21   -1    0    0  503  501  0.00000000000E+00  0.00000000000E+00  0.59617931790E+03  0.59617931790E+03  0.00000000000E+00 0. -1.
         21   -1    0    0  505  502 -0.00000000000E+00 -0.00000000000E+00 -0.41956663926E+03  0.41956663926E+03  0.00000000000E+00 0. -1.
         21    1    1    2  503  502 -0.11425641986E+02 -0.47274563276E+02 -0.28910046481E+03  0.29316293828E+03  0.00000000000E+00 0. -1.
         21    1    1    2  504  501  0.14964851293E+03 -0.14508049694E+03  0.43079425732E+03  0.47856736219E+03  0.00000000000E+00 0. -1.
         21    1    1    2  505  506 -0.64410304922E+02  0.11283981296E+03  0.38340154827E+02  0.13546762802E+03  0.00000000000E+00 0. -1.
         21    1    1    2  506  504 -0.73812566024E+02  0.79515247255E+02 -0.34212686938E+01  0.10854802867E+03  0.00000000000E+00 0. -1.
<scales pt_clust_3="48.63568" pt_clust_4="213.16662" pt_clust_5="43.03864" pt_clust_6="43.03864"></scales>
<clustering>
<clus scale="   43.039">  5  6 -1 -1</clus>
<clus scale="   48.636">  2  3  1 -1</clus>
<clus scale="  213.167">  1  4  2 -1</clus>
<clus scale="  213.167">  1  3  2 -1</clus>
</clustering>
</event>
<event>
 6    0  0.1555973E+002  0.1375502E+03  0.7546771E-02  0.1216664E+00
         21   -1    0    0  506  501  0.00000000000E+00  0.00000000000E+00  0.52782734416E+03  0.52782734416E+03  0.00000000000E+00 0. -1.
         21   -1    0    0  503  502 -0.00000000000E+00 -0.00000000000E+00 -0.72286338298E+03  0.72286338298E+03  0.00000000000E+00 0. -1.
         21    1    1    2  503  504  0.16386847949E+02 -0.26202260059E+02 -0.49007308319E+03  0.49104654982E+03  0.00000000000E+00 0. -1.
         21    1    1    2  504  501 -0.19536778083E+03  0.48681037671E+02 -0.14144330640E+03  0.24605816821E+03  0.00000000000E+00 0. -1.
         21    1    1    2  505  502  0.60778217553E+02  0.41457627404E+02  0.20407987445E+02  0.76349279960E+02  0.00000000000E+00 0. -1.
         21    1    1    2  506  505  0.11820271533E+03 -0.63936405015E+02  0.41607236332E+03  0.43723672915E+03  0.00000000000E+00 0. -1.
<scales pt_clust_3="30.90449" pt_clust_4="14000.00000" pt_clust_5="73.51750" pt_clust_6="137.55021"></scales>
<clustering>
<clus scale="   30.904">  2  3  1 -1</clus>
<clus scale="   73.518">  2  5  1 -1</clus>
<clus scale="  137.550">  1  6  2 -1</clus>
<clus scale="  137.550">  1  3  2 -1</clus>
</clustering>
</event>
<event>
 6    0  0.1555973E+002  0.1775103E+03  0.7546771E-02  0.1170235E+00
         21   -1    0    0  505  501  0.00000000000E+00  0.00000000000E+00  0.47742270606E+03  0.47742270606E+03  0.00000000000E+00 0.  1.
         21   -1    0    0  504  502 -0.00000000000E+00 -0.00000000000E+00 -0.18481755457E+03  0.18481755457E+03  0.00000000000E+00 0.  1.
         21    1    1    2  503  506 -0.36828778949E+02 -0.38758293274E+02  0.57454186433E+02  0.78482786617E+02  0.00000000000E+00 0. -1.
         21    1    1    2  504  503 -0.29993487370E+02  0.69787713778E+02 -0.10176998974E+03  0.12699238202E+03  0.00000000000E+00 0.  1.
         21    1    1    2  505  502  0.18275886771E+03 -0.29814388857E+02  0.15726191883E+03  0.24294240598E+03  0.00000000000E+00 0.  1.
         21    1    1    2  506  501 -0.11593660139E+03 -0.12150316464E+01  0.17965903597E+03  0.21382268601E+03  0.00000000000E+00 0.  1.
<scales pt_clust_3="44.45023" pt_clust_4="75.96008" pt_clust_5="165.00066" pt_clust_6="44.45023"></scales>
<clustering>
<clus scale="   44.450">  3  6 -1 -1</clus>
<clus scale="   75.960">  2  4  1 -1</clus>
<clus scale="  165.001">  2  5  1 -1</clus>
<clus scale="  177.510">  1  3  2 -1</clus>
</clustering>
</event>
<event>
 6    0  0.1555973E+002  0.1759628E+03  0.7546771E-02  0.1171768E+00
         21   -1    0    0  502  501  0.00000000000E+00  0.00000000000E+00  0.10065249815E+04  0.10065249815E+04  0.00000000000E+00 0. -1.
         21   -1    0    0  506  502 -0.00000000000E+00 -0.00000000000E+00 -0.11530254837E+03  0.11530254837E+03  0.00000000000E+00 0.  1.
         21    1    1    2  503  501  0.36556353815E+02  0.89109811822E+01  0.94386376993E+02  0.10160984574E+03  0.00000000000E+00 0. -1.
         21    1    1    2  504  503  0.11068054810E+03 -0.10712101211E+03  0.54033731407E+03  0.56186253474E+03  0.00000000000E+00 0. -1.
         21    1    1    2  505  504 -0.14818710807E+03  0.13524824478E+03  0.32415453120E+03  0.38121866010E+03  0.00000000000E+00 0.  1.
         21    1    1    2  506  505  0.95020615441E+00 -0.37038213849E+02 -0.67655789130E+02  0.77136489288E+02  0.00000000000E+00 0.  1.
<scales pt_clust_3="37.09154" pt_clust_4="175.96283" pt_clust_5="14000.00000" pt_clust_6="37.05040"></scales>
<clustering>
<clus scale="   37.050">  2  6  1 -1</clus>
<clus scale="   37.092">  1  3  2 -1</clus>
<clus scale="  175.963">  1  4  2 -1</clus>
<clus scale="   37.092">  1  3  2 -1</clus>
</clustering>
</event>
<event>
 6    0  0.1555973E+002  0.1805290E+03  0.7546771E-02  0.1167292E+00
         21   -1    0    0  505  501  0.00000000000E+00  0.00000000000E+00  0.19174528651E+04  0.19174528651E+04  0.00000000000E+00 0. -1.
         21   -1    0    0  506  502 -0.00000000000E+00 -0.00000000000E+00 -0.26334047050E+03  0.26334047050E+03  0.00000000000E+00 0.  1.
         21    1    1    2  503  502  0.76286769062E+02  0.33014571823E+02 -0.23875599840E+03  0.25281230164E+03  0.00000000000E+00 0.  1.
         21    1    1    2  504  501 -0.14488731742E+03  0.53933866893E+02  0.11094155090E+04  0.11201356920E+04  0.00000000000E+00 0. -1.
         21    1    1    2  505  503  0.11914220944E+03 -0.76443834890E+02  0.49647376521E+03  0.51626032726E+03  0.00000000000E+00 0. -1.
         21    1    1    2  506  504 -0.50541661081E+02 -0.10504603826E+02  0.28697911871E+03  0.29158501468E+03  0.00000000000E+00 0. -1.
<scales pt_clust_3="83.12420" pt_clust_4="31.43186" pt_clust_5="172.13920" pt_clust_6="31.43186"></scales>
<clustering>
<clus scale="   31.432">  4  6 -1 -1</clus>
<clus scale="   83.124">  2  3  1 -1</clus>
<clus scale="  172.139">  2  5  1 -1</clus>
<clus scale="  180.529">  1  3  2 -1</clus>
</clustering>
</event>
<event>
 6    0  0.1555973E+002  0.2237391E+03  0.7546771E-02  0.1131126E+00
         21   -1    0    0  504  501  0.00000000000E+00  0.00000000000E+00  0.15078864552E+04  0.15078864552E+04  0.00000000000E+00 0. -1.
         21   -1    0    0  505  502 -0.00000000000E+00 -0.00000000000E+00 -0.11103169573E+03  0.11103169573E+03  0.00000000000E+00 0. -1.
         21    1    1    2  503  501 -0.20572671847E+03 -0.20948485461E+03  0.49196162232E+03  0.57291676955E+03  0.00000000000E+00 0. -1.
         21    1    1    2  504  506  0.88054346326E+02  0.38148609526E+01  0.64628861479E+03  0.65227072192E+03  0.00000000000E+00 0. -1.
         21    1    1    2  505  503  0.13197372002E+03  0.10903169025E+03  0.23917698427E+03  0.29412684689E+03  0.00000000000E+00 0. -1.
         21    1    1    2  506  502 -0.14301347882E+02  0.96638303408E+02  0.19427538056E+02  0.99603812536E+02  0.00000000000E+00 0. -1.
<scales pt_clust_3="14000.00000" pt_clust_4="88.13694" pt_clust_5="223.73912" pt_clust_6="97.24887"></scales>
<clustering>
<clus scale="   88.137">  1  4  2 -1</clus>
<clus scale="   97.249">  2  6  1 -1</clus>
<clus scale="  223.739">  2  5  1 -1</clus>
<clus scale="   88.137">  1  3  2 -1</clus>
</clustering>
</event>
<event>
 6    0  0.1555973E+002  0.1468978E+03  0.7546771E-02  0.1204338E+00
         21   -1    0    0  503  501  0.00000000000E+00  0.00000000000E+00  0.11007243323E+02  0.11007243323E+02  0.00000000000E+00 0.  1.
         21   -1    0    0  505  502 -0.00000000000E+00 -0.00000000000E+00 -0.28212060446E+04  0.28212060446E+04  0.00000000000E+00 0.  1.
         21    1    1    2  503  506 -0.62708133079E+02 -0.66778505490E+02 -0.59489478583E+03  0.60190654172E+03  0.00000000000E+00 0.  1.
         21    1    1    2  504  501  0.12986779354E+02  0.32762610209E+02 -0.14066902782E+03  0.14501662130E+03  0.00000000000E+00 0. -1.
         21    1    1    2  505  504  0.80365444576E+02  0.10417184401E+03 -0.14570622981E+04  0.14629904027E+04  0.00000000000E+00 0.  1.
         21    1    1    2  506  502 -0.30644090852E+02 -0.70155948733E+02 -0.61757268950E+03  0.62229972221E+03  0.00000000000E+00 0.  1.
<scales pt_clust_3="30.83786" pt_clust_4="35.24266" pt_clust_5="142.97222" pt_clust_6="30.83786"></scales>
<clustering>
<clus scale="   30.838">  3  6 -1 -1</clus>
<clus scale="   35.243">  1  4  2 -1</clus>
<clus scale="  142.972">  2  5  1 -1</clus>
<clus scale="   35.243">  1  3  2 -1</clus>
</clustering>
</event>
<event>
 6    0  0.1555973E+002  0.2148508E+03  0.7546771E-02  0.1137781E+00
         21   -1    0    0  506  501  0.00000000000E+00  0.00000000000E+00  0.75717186489E+03  0.75717186489E+03  0.00000000000E+00 0. -1.
         21   -1    0    0  505  502 -0.00000000000E+00 -0.00000000000E+00 -0.12345336739E+04  0.12345336739E+04  0.00000000000E+00 0.  1.
         21    1    1    2  503  502 -0.10772288251E+03 -0.79565835292E+02  0.37086629968E+03  0.39430540676E+03  0.00000000000E+00 0. -1.
         21    1    1    2  504  501  0.10050080718E+03  0.11815387380E+03  0.86679397310E+01  0.15535727636E+03  0.00000000000E+00 0. -1.
         21    1    1    2  505  504  0.15533134476E+02  0.50829685726E+02 -0.11419456555E+04  0.11431818820E+04  0.00000000000E+00 0.  1.
         21    1    1    2  506  503 -0.83110591418E+01 -0.89417724234E+02  0.28504960706E+03  0.29886097369E+03  0.00000000000E+00 0. -1.
<scales pt_clust_3="74.18039" pt_clust_4="194.74654" pt_clust_5="53.15012" pt_clust_6="74.18039"></scales>
<clustering>
<clus scale="   53.150">  2  5  1 -1</clus>
<clus scale="   74.180">  3  6 -1 -1</clus>
<clus scale="  194.747">  2  4  1 -1</clus>
<clus scale="  214.851">  1  3  2 -1</clus>
</clustering>
</event>
<event>
 6    0  0.1555973E+002  0.1358590E+03  0.7546771E-02  0.1219012E+00
         21   -1    0    0  506  501  0.00000000000E+00  0.00000000000E+00  0.10396881940E+04  0.10396881940E+04  0.00000000000E+00 0. -1.
         21   -1    0    0  504  502 -0.00000000000E+00 -0.00000000000E+00 -0.40467805193E+02  0.40467805193E+02  0.00000000000E+00 0. -1.
         21    1    1    2  503  501 -0.39823783851E+02 -0.20604063654E+02  0.13498099433E+03  0.14223336468E+03  0.00000000000E+00 0. -1.
         21    1    1    2  504  503 -0.81823302297E+02 -0.23071588218E+02  0.54211464024E+03  0.54874004241E+03  0.00000000000E+00 0. -1.
         21    1    1    2  505  502 -0.70773939528E+01  0.45221291296E+02  0.39385265304E+01  0.45940904245E+02  0.00000000000E+00 0. -1.
         21    1    1    2  506  505  0.12872448010E+03 -0.15456394234E+01  0.31818622772E+03  0.34324168787E+03  0.00000000000E+00 0. -1.
<scales pt_clust_3="34.67873" pt_clust_4="34.67873" pt_clust_5="45.77177" pt_clust_6="127.19083"></scales>
<clustering>
<clus scale="   34.679">  3  4 -1 -1</clus>
<clus scale="   45.772">  2  5  1 -1</clus>
<clus scale="  127.191">  2  6  1 -1</clus>
<clus scale="  135.859">  1  3  2 -1</clus>
</clustering>
</event>
<event>
 6    0  0.1555973E+002  0.1321360E+03  0.7546771E-02  0.1224320E+00
         21   -1    0    0  505  501  0.00000000000E+00  0.00000000000E+00  0.18179778931E+03  0.18179778931E+03  0.00000000000E+00 0. -1.
         21   -1    0    0  504  502 -0.00000000000E+00 -0.00000000000E+00 -0.70429296703E+03  0.70429296703E+03  0.00000000000E+00 0. -1.
         21    1    1    2  503  502 -0.10790270678E+03  0.36785034221E+02 -0.56454610715E+02  0.12721342675E+03  0.00000000000E+00 0.  1.
         21    1    1    2  504  506  0.28336858797E+02 -0.11813529748E+03 -0.56301475508E+03  0.57597269077E+03  0.00000000000E+00 0. -1.
         21    1    1    2  505  503 -0.24779474166E+02  0.23543735298E+02  0.11158543338E+02  0.35956124668E+02  0.00000000000E+00 0.  1.
         21    1    1    2  506  501  0.10434532215E+03  0.57806527959E+02  0.85815644740E+02  0.14694851415E+03  0.00000000000E+00 0. -1.
<scales pt_clust_3="31.59066" pt_clust_4="118.87593" pt_clust_5="31.59066" pt_clust_6="119.28764"></scales>
<clustering>
<clus scale="   31.591">  3  5 -1 -1</clus>
<clus scale="  119.288">  1  6  2 -1</clus>
<clus scale="  118.876">  2  4  1 -1</clus>
<clus scale="  119.288">  1  3  2 -1</clus>
</clustering>
</event>
<event>
 6    0  0.1555973E+002  0.7676069E+02  0.7546771E-02  0.1338504E+00
         21   -1    0    0  503  501  0.00000000000E+00  0.00000000000E+00  0.92644585830E+03  0.92644585830E+03  0.00000000000E+00 0.  1.
         21   -1    0    0  506  502 -0.00000000000E+00 -0.00000000000E+00 -0.53848971354E+02  0.53848971354E+02  0.00000000000E+00 0. -1.
         21    1    1    2  503  504 -0.11527398802E+02 -0.47774913868E+02  0.20497216705E+03  0.21078167042E+03  0.00000000000E+00 0.  1.
         21    1    1    2  504  505  0.35526271988E+02  0.59322112188E+02  0.31847452110E+03  0.32589453752E+03  0.00000000000E+00 0. -1.
         21    1    1    2  505  502  0.51404761837E+02 -0.33280195526E+02  0.35930957967E+03  0.36449059658E+03  0.00000000000E+00 0.  1.
         21    1    1    2  506  501 -0.75403635023E+02  0.21732997207E+02 -0.10159380873E+02  0.79128025136E+02  0.00000000000E+00 0. -1.
<scales pt_clust_3="49.14594" pt_clust_4="48.56027" pt_clust_5="14000.00000" pt_clust_6="76.76069"></scales>
<clustering>
<clus scale="   49.146">  1  3  2 -1</clus>
<clus scale="   48.560">  1  4  2 -1</clus>
<clus scale="   76.761">  2  6  1 -1</clus>
<clus scale="   49.146">  1  3  2 -1</clus>
</clustering>
</event>
<event>
 6    0  0.1555973E+002  0.1280846E+03  0.7546771E-02  0.1230326E+00
         21   -1    0    0  504  501  0.00000000000E+00  0.00000000000E+00  0.16663143400E+04  0.16663143400E+04  0.00000000000E+00 0.  1.
         21   -1    0    0  503  502 -0.00000000000E+00 -0.00000000000E+00 -0.26661789339E+03  0.26661789339E+03  0.00000000000E+00 0.  1.
         21    1    1    2  503  505  0.50771742194E+02  0.12266608356E+03 -0.23956269659E+03  0.27388870634E+03  0.00000000000E+00 0.  1.
         21    1    1    2  504  506 -0.11268757002E+02 -0.73458912532E+02  0.68619278929E+03  0.69020557864E+03  0.00000000000E+00 0.  1.
         21    1    1    2  505  501 -0.71762157537E+02  0.22995843403E+02  0.69107411336E+03  0.69517051594E+03  0.00000000000E+00 0.  1.
         21    1    1    2  506  502  0.32259172345E+02 -0.72203014429E+02  0.26199224056E+03  0.27366743249E+03  0.00000000000E+00 0.  1.
<scales pt_clust_3="128.08457" pt_clust_4="74.31821" pt_clust_5="84.87708" pt_clust_6="14000.00000"></scales>
<clustering>
<clus scale="   74.318">  1  4  2 -1</clus>
<clus scale="   84.877">  1  5  2 -1</clus>
<clus scale="  128.085">  2  3  1 -1</clus>
<clus scale="   74.318">  1  3  2 -1</clus>
</clustering>
</event>
<event>
 6    0  0.1555973E+002  0.1302987E+03  0.7546771E-02  0.1227013E+00
         21   -1    0    0  504  501  0.00000000000E+00  0.00000000000E+00  0.53395824424E+02  0.53395824424E+02  0.00000000000E+00 0.  1.
         21   -1    0    0  503  502 -0.00000000000E+00 -0.00000000000E+00 -0.88010905777E+03  0.88010905777E+03  0.00000000000E+00 0.  1.
         21    1    1    2  503  505 -0.68969247640E+02 -0.82159941637E+02 -0.61110561846E+03  0.62044910351E+03  0.00000000000E+00 0.  1.
         21    1    1    2  504  506  0.76877246607E+01  0.37662124451E+02 -0.39172198842E+02  0.54881671719E+02  0.00000000000E+00 0.  1.
         21    1    1    2  505  501 -0.58335829790E+02 -0.53890450173E+01 -0.48378636161E+02  0.75977649873E+02  0.00000000000E+00 0.  1.
         21    1    1    2  506  502  0.11961735277E+03  0.49886862204E+02 -0.12805677989E+03  0.18219645710E+03  0.00000000000E+00 0.  1.
<scales pt_clust_3="112.28828" pt_clust_4="35.99752" pt_clust_5="58.58422" pt_clust_6="35.99752"></scales>
<clustering>
<clus scale="   35.998">  4  6 -1 -1</clus>
<clus scale="   58.584">  1  5  2 -1</clus>
<clus scale="  112.288">  2  3  1 -1</clus>
<clus scale="   58.584">  1  3  2 -1</clus>
</clustering>
</event>
<event>
 6    0  0.1555973E+002  0.9214419E+02  0.7546771E-02  0.1297741E+00
         21   -1    0    0  505  501  0.00000000000E+00  0.00000000000E+00  0.65687009100E+02  0.65687009100E+02  0.00000000000E+00 0. -1.
         21   -1    0    0  506  502 -0.00000000000E+00 -0.00000000000E+00 -0.22483061823E+04  0.22483061823E+04  0.00000000000E+00 0.  1.
         21    1    1    2  503  501 -0.40626464104E+01 -0.85243277110E+02  0.17768212529E+02  0.87170125414E+02  0.00000000000E+00 0. -1.
         21    1    1    2  504  503  0.10993554580E+01  0.70183667020E+02 -0.13261658918E+03  0.15004704404E+03  0.00000000000E+00 0. -1.
         21    1    1    2  505  502 -0.14962675116E+02 -0.37607136726E+02 -0.95526924539E+02  0.10374763463E+03  0.00000000000E+00 0. -1.
         21    1    1    2  506  504  0.17925966069E+02  0.52666746815E+02 -0.19722438721E+04  0.19730283874E+04  0.00000000000E+00 0.  1.
<scales pt_clust_3="92.14419" pt_clust_4="14000.00000" pt_clust_5="40.47442" pt_clust_6="55.37636"></scales>
<clustering>
<clus scale="   40.474">  1  5  2 -1</clus>
<clus scale="   55.376">  2  6  1 -1</clus>
<clus scale="   92.144">  1  3  2 -1</clus>
<clus scale="   40.474">  1  3  2 -1</clus>
</clustering>
</event>
<event>
 6    0  0.1555973E+002  0.1019067E+03  0.7546771E-02  0.1276337E+00
         21   -1    0    0  506  501  0.00000000000E+00  0.00000000000E+00  0.13601294597E+04  0.13601294597E+04  0.00000000000E+00 0.  1.
         21   -1    0    0  503  502 -0.00000000000E+00 -0.00000000000E+00 -0.51707501317E+03  0.51707501317E+03  0.00000000000E+00 0. -1.
         21    1    1    2  503  501  0.61056593926E+02 -0.98418825424E+02  0.55562701971E+02  0.12845772343E+03  0.00000000000E+00 0.  1.
         21    1    1    2  504  505 -0.61134205437E+02  0.41651623936E+02  0.51039056880E+03  0.51572355150E+03  0.00000000000E+00 0.  1.
         21    1    1    2  505  502  0.18888557270E+02  0.28546346567E+02 -0.47696651127E+03  0.47819318729E+03  0.00000000000E+00 0. -1.
         21    1    1    2  506  504 -0.18810945759E+02  0.28220854922E+02  0.75406768705E+03  0.75483001065E+03  0.00000000000E+00 0.  1.
<scales pt_clust_3="101.90668" pt_clust_4="14000.00000" pt_clust_5="34.24302" pt_clust_6="33.91561"></scales>
<clustering>
<clus scale="   33.916">  1  6  2 -1</clus>
<clus scale="   34.243">  2  5  1 -1</clus>
<clus scale="  101.907">  2  3  1 -1</clus>
<clus scale="   33.916">  1  3  2 -1</clus>
</clustering>
</event>
<event>
 6    0  0.1555973E+002  0.1482430E+03  0.7546771E-02  0.1202649E+00
         21   -1    0    0  506  501  0.00000000000E+00  0.00000000000E+00  0.52917078577E+03  0.52917078577E+03  0.00000000000E+00 0. -1.
         21   -1    0    0  505  502 -0.00000000000E+00 -0.00000000000E+00 -0.14038497908E+04  0.14038497908E+04  0.00000000000E+00 0. -1.
         21    1    1    2  503  504 -0.10589878237E+03 -0.66934504890E+02 -0.13348012382E+03  0.18306207556E+03  0.00000000000E+00 0. -1.
         21    1    1    2  504  502 -0.25225519684E+02 -0.31125753611E+02 -0.12207531653E+04  0.12214104265E+04  0.00000000000E+00 0. -1.
         21    1    1    2  505  501  0.76963363400E+02 -0.10187658895E+02  0.31405846472E+03  0.32351177253E+03  0.00000000000E+00 0. -1.
         21    1    1    2  506  503  0.54160938658E+02  0.10824791740E+03  0.16549581937E+03  0.20503630197E+03  0.00000000000E+00 0. -1.
<scales pt_clust_3="148.24300" pt_clust_4="40.06419" pt_clust_5="77.09867" pt_clust_6="14000.00000"></scales>
<clustering>
<clus scale="   40.064">  2  4  1 -1</clus>
<clus scale="   77.099">  1  5  2 -1</clus>
<clus scale="  148.243">  2  3  1 -1</clus>
<clus scale="   77.099">  1  3  2 -1</clus>
</clustering>
</event>
<event>
 6    0  0.1555973E+002  0.1065785E+03  0.7546771E-02  0.1267040E+00
         21   -1    0    0  506  501  0.00000000000E+00  0.00000000000E+00  0.41666669891E+03  0.41666669891E+03  0.00000000000E+00 0.  1.
         21   -1    0    0  503  502 -0.00000000000E+00 -0.00000000000E+00 -0.17197187893E+03  0.17197187893E+03  0.00000000000E+00 0. -1.
         21    1    1    2  503  505  0.93137259860E+02 -0.39976546688E+02 -0.13508814574E+03  0.16888303816E+03  0.00000000000E+00 0. -1.
         21    1    1    2  504  502 -0.50468800298E+02 -0.31273567908E+02  0.19413828904E+03  0.20301431261E+03  0.00000000000E+00 0.  1.
         21    1    1    2  505  501 -0.13286696168E+01  0.64460654925E+02  0.77788720477E+02  0.10103477832E+03  0.00000000000E+00 0.  1.
         21    1    1    2  506  504 -0.41339789945E+02  0.67894596711E+01  0.10785595619E+03  0.11570644875E+03  0.00000000000E+00 0.  1.
<scales pt_clust_3="100.02432" pt_clust_4="30.91057" pt_clust_5="64.47435" pt_clust_6="30.91057"></scales>
<clustering>
<clus scale="   30.911">  4  6 -1 -1</clus>
<clus scale="   64.474">  1  5  2 -1</clus>
<clus scale="  100.024">  2  3  1 -1</clus>
<clus scale="   64.474">  1  3  2 -1</clus>
</clustering>
</event>
<event>
 6    0  0.1555973E+002  0.8203860E+02  0.7546771E-02  0.1323364E+00
         21   -1    0    0  503  501  0.00000000000E+00  0.00000000000E+00  0.20595917808E+04  0.20595917808E+04  0.00000000000E+00 0.  1.
         21   -1    0    0  506  502 -0.00000000000E+00 -0.00000000000E+00 -0.11946586435E+04  0.11946586435E+04  0.00000000000E+00 0. -1.
         21    1    1    2  503  505  0.35533204050E+02  0.79919605980E+01  0.24098340696E+03  0.24372009038E+03  0.00000000000E+00 0.  1.
         21    1    1    2  504  501  0.91191672377E+02  0.13783610204E+01  0.16593432372E+04  0.16618477065E+04  0.00000000000E+00 0.  1.
         21    1    1    2  505  502 -0.45120702875E+02 -0.10122465092E+01  0.15194893536E+03  0.15850987801E+03  0.00000000000E+00 0.  1.
         21    1    1    2  506  504 -0.81604173552E+02 -0.83580751092E+01 -0.11873424421E+04  0.11901727494E+04  0.00000000000E+00 0. -1.
<scales pt_clust_3="36.42087" pt_clust_4="14000.00000" pt_clust_5="42.08673" pt_clust_6="82.03860"></scales>
<clustering>
<clus scale="   36.421">  1  3  2 -1</clus>
<clus scale="   42.087">  1  5  2 -1</clus>
<clus scale="   82.039">  2  6  1 -1</clus>
<clus scale="   36.421">  1  3  2 -1</clus>
</clustering>
</event>
<event>
 6    0  0.1555973E+002  0.7474045E+02  0.7546771E-02  0.1344677E+00
         21   -1    0    0  503  501  0.00000000000E+00  0.00000000000E+00  0.33077822461E+03  0.33077822461E+03  0.00000000000E+00 0. -1.
         21   -1    0    0  505  502 -0.00000000000E+00 -0.00000000000E+00 -0.72668017752E+03  0.72668017752E+03  0.00000000000E+00 0. -1.
         21    1    1    2  503  504 -0.53910672982E+01  0.40119949609E+02 -0.15635996917E+02  0.43395372597E+02  0.00000000000E+00 0.  1.
         21    1    1    2  504  502 -0.17461996815E+02  0.43845560989E+02 -0.61110918309E+03  0.61292886064E+03  0.00000000000E+00 0. -1.
         21    1    1    2  505  506  0.78204295531E+02 -0.72142809329E+02 -0.47914137883E+02  0.11668873719E+03  0.00000000000E+00 0.  1.
         21    1    1    2  506  501 -0.55351231419E+02 -0.11822701269E+02  0.27875736498E+03  0.28444543170E+03  0.00000000000E+00 0. -1.
<scales pt_clust_3="40.48054" pt_clust_4="47.30761" pt_clust_5="14000.00000" pt_clust_6="74.74045"></scales>
<clustering>
<clus scale="   40.481">  1  3  2 -1</clus>
<clus scale="   47.308">  2  4  1 -1</clus>
<clus scale="   74.740">  1  6  2 -1</clus>
<clus scale="   40.481">  1  3  2 -1</clus>
</clustering>
</event>
<event>
 6    0  0.1555973E+002  0.1214046E+03  0.7546771E-02  0.1240798E+00
         21   -1    0    0  504  501  0.00000000000E+00  0.00000000000E+00  0.12531376011E+04  0.12531376011E+04  0.00000000000E+00 0.  1.
         21   -1    0    0  506  502 -0.00000000000E+00 -0.00000000000E+00 -0.80196876176E+03  0.80196876176E+03  0.00000000000E+00 0.  1.
         21    1    1    2  503  505 -0.18192577962E+02  0.87900757038E+02  0.65345715125E+02  0.11102961527E+03  0.00000000000E+00 0.  1.
         21    1    1    2  504  502 -0.74299120631E+02 -0.15055826022E+03  0.93472991016E+03  0.94968845102E+03  0.00000000000E+00 0.  1.
         21    1    1    2  505  501  0.30234633013E+02  0.29152826930E+02  0.21912269132E+03  0.22311157344E+03  0.00000000000E+00 0. -1.
         21    1    1    2  506  503  0.62257065579E+02  0.33504676250E+02 -0.76802947731E+03  0.77127672308E+03  0.00000000000E+00 0.  1.
<scales pt_clust_3="14000.00000" pt_clust_4="121.40460" pt_clust_5="42.00024" pt_clust_6="70.76373"></scales>
<clustering>
<clus scale="   42.000">  1  5  2 -1</clus>
<clus scale="   70.764">  2  6  1 -1</clus>
<clus scale="  121.405">  1  4  2 -1</clus>
<clus scale="   42.000">  1  3  2 -1</clus>
</clustering>
</event>
<event>
 6    0  0.1555973E+002  0.2874420E+03  0.7546771E-02  0.1091692E+00
         21   -1    0    0  505  501  0.00000000000E+00  0.00000000000E+00  0.87427387132E+03  0.87427387132E+03  0.00000000000E+00 0.  1.
         21   -1    0    0  506  502 -0.00000000000E+00 -0.00000000000E+00 -0.78772681772E+03  0.78772681772E+03  0.00000000000E+00 0. -1.
         21    1    1    2  503  502  0.10572219522E+03 -0.78165115771E+02 -0.65861246948E+03  0.67160803513E+03  0.00000000000E+00 0. -1.
         21    1    1    2  504  503 -0.31244546027E+03  0.13096570568E+03  0.40979449217E+03  0.53170076878E+03  0.00000000000E+00 0.  1.
         21    1    1    2  505  504 -0.14667694448E+02  0.50535585328E+02  0.12742501866E+03  0.13786269265E+03  0.00000000000E+00 0.  1.
         21    1    1    2  506  501  0.22139095950E+03 -0.10333617523E+03  0.20794001226E+03  0.32082919250E+03  0.00000000000E+00 0.  1.
<scales pt_clust_3="131.11365" pt_clust_4="14000.00000" pt_clust_5="52.62116" pt_clust_6="287.44201"></scales>
<clustering>
<clus scale="   52.621">  1  5  2 -1</clus>
<clus scale="  131.114">  2  3  1 -1</clus>
<clus scale="  287.442">  1  6  2 -1</clus>
<clus scale="   52.621">  1  3  2 -1</clus>
</clustering>
</event>
<event>
 6    0  0.1555973E+002  0.1158445E+03  0.7546771E-02  0.1250114E+00
         21   -1    0    0  506  501  0.00000000000E+00  0.00000000000E+00  0.83124190889E+02  0.83124190889E+02  0.00000000000E+00 0. -1.
         21   -1    0    0  505  502 -0.00000000000E+00 -0.00000000000E+00 -0.31805483197E+03  0.31805483197E+03  0.00000000000E+00 0.  1.
         21    1    1    2  503  501  0.36196304840E+02 -0.37676179519E+02 -0.17045131582E+02  0.54956378136E+02  0.00000000000E+00 0. -1.
         21    1    1    2  504  502  0.26693401276E+02  0.22269425457E+02 -0.15080943767E+01  0.34795679768E+02  0.00000000000E+00 0.  1.
         21    1    1    2  505  503 -0.11608825546E+03  0.25779189676E+02 -0.22693860241E+03  0.25620729681E+03  0.00000000000E+00 0.  1.
         21    1    1    2  506  504  0.53198549345E+02 -0.10372435615E+02  0.10561187286E+02  0.55219668143E+02  0.00000000000E+00 0. -1.
<scales pt_clust_3="52.24622" pt_clust_4="30.98148" pt_clust_5="109.19433" pt_clust_6="30.98148"></scales>
<clustering>
<clus scale="   30.981">  4  6 -1 -1</clus>
<clus scale="   52.246">  1  3  2 -1</clus>
<clus scale="  109.194">  2  5  1 -1</clus>
<clus scale="   52.246">  1  3  2 -1</clus>
</clustering>
</event>
<event>
 6    0  0.1555973E+002  0.1316397E+03  0.7546771E-02  0.1225043E+00
         21   -1    0    0  502  501  0.00000000000E+00  0.00000000000E+00  0.57829889538E+03  0.57829889538E+03  0.00000000000E+00 0. -1.
         21   -1    0    0  503  502 -0.00000000000E+00 -0.00000000000E+00 -0.24237624399E+03  0.24237624399E+03  0.00000000000E+00 0.  1.
         21    1    1    2  503  504  0.58304066694E+02  0.97646424635E+02 -0.17617285764E+03  0.20969278530E+03  0.00000000000E+00 0.  1.
         21    1    1    2  504  506 -0.34673742364E+02 -0.12514037056E+03  0.70756856755E+02  0.14788141713E+03  0.00000000000E+00 0. -1.
         21    1    1    2  505  501 -0.26103398373E+02  0.73014786998E+02  0.37284758165E+03  0.38082524295E+03  0.00000000000E+00 0. -1.
         21    1    1    2  506  505  0.24730740430E+01 -0.45520841069E+02  0.68491070620E+02  0.82275693990E+02  0.00000000000E+00 0. -1.
<scales pt_clust_3="117.93569" pt_clust_4="34.65132" pt_clust_5="77.54061" pt_clust_6="34.65132"></scales>
<clustering>
<clus scale="   34.651">  4  6 -1 -1</clus>
<clus scale="   77.541">  1  5  2 -1</clus>
<clus scale="  117.936">  2  3  1 -1</clus>
<clus scale="   77.541">  1  3  2 -1</clus>
</clustering>
</event>
<event>
 6    0  0.1555973E+002  0.9287884E+02  0.7546771E-02  0.1296026E+00
         21   -1    0    0  504  501  0.00000000000E+00  0.00000000000E+00  0.33654957743E+03  0.33654957743E+03  0.00000000000E+00 0.  1.
         21   -1    0    0  505  502 -0.00000000000E+00 -0.00000000000E+00 -0.28027993514E+03  0.28027993514E+03  0.00000000000E+00 0.  1.
         21    1    1    2  503  501 -0.45346589614E+02 -0.81130347581E+02  0.29568782047E+03  0.30995117948E+03  0.00000000000E+00 0.  1.
         21    1    1    2  504  502 -0.49356022863E+02 -0.58913689127E+01 -0.82017582852E+02  0.95904166319E+02  0.00000000000E+00 0.  1.
         21    1    1    2  505  506  0.18541104781E+02  0.25224359610E+02 -0.80940207153E+01  0.32335028306E+02  0.00000000000E+00 0. -1.
         21    1    1    2  506  503  0.76161507696E+02  0.61797356884E+02 -0.14930657461E+03  0.17863913847E+03  0.00000000000E+00 0.  1.
<scales pt_clust_3="92.87884" pt_clust_4="43.10065" pt_clust_5="31.30560" pt_clust_6="14000.00000"></scales>
<clustering>
<clus scale="   31.306">  2  5  1 -1</clus>
<clus scale="   43.101">  2  4  1 -1</clus>
<clus scale="   92.879">  1  3  2 -1</clus>
<clus scale="   92.879">  1  3  2 -1</clus>
</clustering>
</event>
<event>
 6    0  0.1555973E+002  0.1305373E+03  0.7546771E-02  0.1226661E+00
         21   -1    0    0  506  501  0.00000000000E+00  0.00000000000E+00  0.16284794302E+03  0.16284794302E+03  0.00000000000E+00 0. -1.
         21   -1    0    0  505  502 -0.00000000000E+00 -0.00000000000E+00 -0.59730244400E+03  0.59730244400E+03  0.00000000000E+00 0.  1.
         21    1    1    2  503  501  0.65107675556E+02  0.78175577047E+02 -0.41619539584E+02  0.10992095495E+03  0.00000000000E+00 0.  1.
         21    1    1    2  504  502  0.91164878425E+01 -0.78067134042E+02  0.24273211752E+02  0.82260419260E+02  0.00000000000E+00 0. -1.
         21    1    1    2  505  503 -0.60746079179E+02  0.73191285140E+02 -0.46809995212E+03  0.47766579899E+03  0.00000000000E+00 0.  1.
         21    1    1    2  506  504 -0.13478084220E+02 -0.73299728145E+02  0.50991778971E+02  0.90303213802E+02  0.00000000000E+00 0. -1.
<scales pt_clust_3="125.92674" pt_clust_4="33.48466" pt_clust_5="95.11598" pt_clust_6="33.48466"></scales>
<clustering>
<clus scale="   33.485">  4  6 -1 -1</clus>
<clus scale="   95.116">  2  5  1 -1</clus>
<clus scale="  125.927">  2  3  1 -1</clus>
<clus scale="  130.537">  1  3  2 -1</clus>
</clustering>
</event>
<event>
 6    0  0.1555973E+002  0.9174367E+02  0.7546771E-02  0.1298683E+00
         21   -1    0    0  504  501  0.00000000000E+00  0.00000000000E+00  0.56708659074E+03  0.56708659074E+03  0.00000000000E+00 0. -1.
         21   -1    0    0  503  502 -0.00000000000E+00 -0.00000000000E+00 -0.85540879735E+03  0.85540879735E+03  0.00000000000E+00 0. -1.
         21    1    1    2  503  505 -0.70508575291E+01  0.91985802655E+02 -0.82880895962E+03  0.83392769112E+03  0.00000000000E+00 0. -1.
         21    1    1    2  504  502  0.15276605871E+02 -0.32098694116E+02  0.75515452048E+02  0.83464269894E+02  0.00000000000E+00 0.  1.
         21    1    1    2  505  506 -0.43967133230E+02 -0.75132770506E+02  0.80165769164E+02  0.11834100115E+03  0.00000000000E+00 0. -1.
         21    1    1    2  506  501  0.35741384888E+02  0.15245661966E+02  0.38480553180E+03  0.38676242592E+03  0.00000000000E+00 0. -1.
<scales pt_clust_3="14000.00000" pt_clust_4="35.54857" pt_clust_5="91.74367" pt_clust_6="48.89344"></scales>
<clustering>
<clus scale="   35.549">  1  4  2 -1</clus>
<clus scale="   48.893">  1  6  2 -1</clus>
<clus scale="   91.744">  1  5  2 -1</clus>
<clus scale="   35.549">  1  3  2 -1</clus>
</clustering>
</event>
<event>
 6    0  0.1555973E+002  0.1082003E+03  0.7546771E-02  0.1263939E+00
         21   -1    0    0  505  501  0.00000000000E+00  0.00000000000E+00  0.11079101647E+04  0.11079101647E+04  0.00000000000E+00 0.  1.
         21   -1    0    0  504  502 -0.00000000000E+00 -0.00000000000E+00 -0.19512876369E+03  0.19512876369E+03  0.00000000000E+00 0.  1.
         21    1    1    2  503  501  0.31081247621E+02  0.20852115196E+02  0.24679780850E+03  0.24961973669E+03  0.00000000000E+00 0.  1.
         21    1    1    2  504  506  0.24655772170E+02 -0.43486772871E+02 -0.18153897755E+03  0.18829606179E+03  0.00000000000E+00 0.  1.
         21    1    1    2  505  502 -0.67314578375E+02 -0.58535319379E+02  0.51305858760E+03  0.52075594129E+03  0.00000000000E+00 0.  1.
         21    1    1    2  506  503  0.11577558583E+02  0.81169977053E+02  0.33446398245E+03  0.34436718861E+03  0.00000000000E+00 0.  1.
<scales pt_clust_3="35.28173" pt_clust_4="49.99006" pt_clust_5="94.76487" pt_clust_6="35.28173"></scales>
<clustering>
<clus scale="   35.282">  3  6 -1 -1</clus>
<clus scale="   49.990">  2  4  1 -1</clus>
<clus scale="   94.765">  1  5  2 -1</clus>
<clus scale="   94.765">  1  3  2 -1</clus>
</clustering>
</event>
<event>
 6    0  0.1555973E+002  0.8482908E+02  0.7546771E-02  0.1315880E+00
         21   -1    0    0  504  501  0.00000000000E+00  0.00000000000E+00  0.23999882791E+04  0.23999882791E+04  0.00000000000E+00 0.  1.
         21   -1    0    0  503  502 -0.00000000000E+00 -0.00000000000E+00 -0.12374703269E+02  0.12374703269E+02  0.00000000000E+00 0.  1.
         21    1    1    2  503  505 -0.11191234300E+02 -0.93134336162E+02  0.27651875515E+03  0.29199635314E+03  0.00000000000E+00 0.  1.
         21    1    1    2  504  502  0.24653292537E+02  0.66491631581E+02  0.48112280106E+03  0.48632095534E+03  0.00000000000E+00 0.  1.
         21    1    1    2  505  506 -0.59333574279E+02  0.26920497577E+02  0.72871185930E+03  0.73161886260E+03  0.00000000000E+00 0.  1.
         21    1    1    2  506  501  0.45871516042E+02 -0.27779299611E+00  0.90126016036E+03  0.90242681133E+03  0.00000000000E+00 0.  1.
<scales pt_clust_3="84.82908" pt_clust_4="14000.00000" pt_clust_5="45.65874" pt_clust_6="45.87236"></scales>
<clustering>
<clus scale="   45.872">  1  6  2 -1</clus>
<clus scale="   45.659">  1  5  2 -1</clus>
<clus scale="   84.829">  2  3  1 -1</clus>
<clus scale="   45.872">  1  3  2 -1</clus>
</clustering>
</event>
<event>
 6    0  0.1555973E+002  0.1159421E+03  0.7546771E-02  0.1249946E+00
         21   -1    0    0  502  501  0.00000000000E+00  0.00000000000E+00  0.12077371783E+04  0.12077371783E+04  0.00000000000E+00 0. -1.
         21   -1    0    0  504  502 -0.00000000000E+00 -0.00000000000E+00 -0.39596692126E+02  0.39596692126E+02  0.00000000000E+00 0. -1.
         21    1    1    2  503  506  0.26293849326E+02 -0.74036549773E+02  0.64363763142E+03  0.64841512767E+03  0.00000000000E+00 0. -1.
         21    1    1    2  504  505  0.43009214497E+02  0.42999768450E+02  0.69540511378E+02  0.92383198370E+02  0.00000000000E+00 0. -1.
         21    1    1    2  505  503 -0.50719196966E+02  0.67864709976E+02  0.47777233233E+02  0.97266231635E+02  0.00000000000E+00 0. -1.
         21    1    1    2  506  501 -0.18583866857E+02 -0.36827928653E+02  0.40718511015E+03  0.40926931275E+03  0.00000000000E+00 0. -1.
<scales pt_clust_3="33.34388" pt_clust_4="60.81754" pt_clust_5="106.41901" pt_clust_6="33.34388"></scales>
<clustering>
<clus scale="   33.344">  3  6 -1 -1</clus>
<clus scale="   60.818">  2  4  1 -1</clus>
<clus scale="  106.419">  2  5  1 -1</clus>
<clus scale="  115.942">  1  3  2 -1</clus>
</clustering>
</event>
<event>
 6    0  0.1555973E+002  0.1694529E+03  0.7546771E-02  0.1178420E+00
         21   -1    0    0  505  501  0.00000000000E+00  0.00000000000E+00  0.28380407264E+03  0.28380407264E+03  0.00000000000E+00 0. -1.
         21   -1    0    0  504  502 -0.00000000000E+00 -0.00000000000E+00 -0.53073789070E+03  0.53073789070E+03  0.00000000000E+00 0. -1.
         21    1    1    2  503  506  0.15654903599E+03 -0.41984622817E+01  0.20439097055E+03  0.25748960484E+03  0.00000000000E+00 0. -1.
         21    1    1    2  504  501 -0.21950334620E+02  0.39517451540E+02 -0.36313411139E+01  0.45350113610E+02  0.00000000000E+00 0. -1.
         21    1    1    2  505  503  0.34104579794E+02 -0.10775795982E+02 -0.35235226115E+01  0.35939607031E+02  0.00000000000E+00 0. -1.
         21    1    1    2  506  502 -0.16870328117E+03 -0.24543193276E+02 -0.44416992488E+03  0.47576263786E+03  0.00000000000E+00 0. -1.
<scales pt_clust_3="169.45291" pt_clust_4="43.22178" pt_clust_5="35.76647" pt_clust_6="14000.00000"></scales>
<clustering>
<clus scale="   35.766">  1  5  2 -1</clus>
<clus scale="   43.222">  1  4  2 -1</clus>
<clus scale="  169.453">  1  3  2 -1</clus>
<clus scale="   35.766">  1  3  2 -1</clus>
</clustering>
</event>
<event>
 6    0  0.1555973E+002  0.1510222E+03  0.7546771E-02  0.1199223E+00
         21   -1    0    0  505  501  0.00000000000E+00  0.00000000000E+00  0.30612504808E+03  0.30612504808E+03  0.00000000000E+00 0.  1.
         21   -1    0    0  506  502 -0.00000000000E+00 -0.00000000000E+00 -0.14036507356E+03  0.14036507356E+03  0.00000000000E+00 0.  1.
         21    1    1    2  503  501  0.15738412292E+03  0.21537038942E+02  0.91580858736E+02  0.18335937359E+03  0.00000000000E+00 0.  1.
         21    1    1    2  504  502 -0.42230131408E+02 -0.20204872811E+01  0.10641140853E+02  0.43597021070E+02  0.00000000000E+00 0.  1.
         21    1    1    2  505  504 -0.84219774499E+02 -0.11182675796E+02  0.12446510881E+03  0.15069700052E+03  0.00000000000E+00 0.  1.
         21    1    1    2  506  503 -0.30934217017E+02 -0.83338758649E+01 -0.60927133877E+02  0.68836726475E+02  0.00000000000E+00 0.  1.
<scales pt_clust_3="139.55332" pt_clust_4="42.54016" pt_clust_5="42.54016" pt_clust_6="32.03715"></scales>
<clustering>
<clus scale="   32.037">  2  6  1 -1</clus>
<clus scale="   42.540">  4  5 -1 -1</clus>
<clus scale="  139.553">  2  3  1 -1</clus>
<clus scale="  151.022">  1  3  2 -1</clus>
</clustering>
</event>
<event>
 6    0  0.1555973E+002  0.2513359E+03  0.7546771E-02  0.1112463E+00
         21   -1    0    0  505  501  0.00000000000E+00  0.00000000000E+00  0.19325629376E+03  0.19325629376E+03  0.00000000000E+00 0. -1.
         21   -1    0    0  506  502 -0.00000000000E+00 -0.00000000000E+00 -0.68681648904E+03  0.68681648904E+03  0.00000000000E+00 0.  1.
         21    1    1    2  503  502  0.30528080264E+02  0.37917708274E+02 -0.23925780916E+03  0.24415981555E+03  0.00000000000E+00 0.  1.
         21    1    1    2  504  501 -0.14124240563E+03 -0.16134668973E+03  0.56289584625E+02  0.22169954617E+03  0.00000000000E+00 0. -1.
         21    1    1    2  505  503  0.99365785654E+02  0.16844203877E+03 -0.31147765823E+03  0.36778337559E+03  0.00000000000E+00 0.  1.
         21    1    1    2  506  504  0.11348539713E+02 -0.45013057306E+02  0.88568748002E+00  0.46430045488E+02  0.00000000000E+00 0.  1.
<scales pt_clust_3="48.67973" pt_clust_4="44.54951" pt_clust_5="232.38338" pt_clust_6="44.54951"></scales>
<clustering>
<clus scale="   44.550">  4  6 -1 -1</clus>
<clus scale="   48.680">  2  3  1 -1</clus>
<clus scale="  232.383">  2  5  1 -1</clus>
<clus scale="  251.336">  1  3  2 -1</clus>
</clustering>
</event>
<event>
 6    0  0.1555973E+002  0.1160502E+03  0.7546771E-02  0.1249759E+00
         21   -1    0    0  503  501  0.00000000000E+00  0.00000000000E+00  0.63031302640E+03  0.63031302640E+03  0.00000000000E+00 0.  1.
         21   -1    0    0  505  502 -0.00000000000E+00 -0.00000000000E+00 -0.56088890271E+03  0.56088890271E+03  0.00000000000E+00 0.  1.
         21    1    1    2  503  502 -0.15661330282E+02  0.33184930466E+02  0.12867613864E+03  0.13380607435E+03  0.00000000000E+00 0.  1.
         21    1    1    2  504  501  0.11436455864E+03 -0.11209584469E+03  0.44411233152E+03  0.47210220681E+03  0.00000000000E+00 0.  1.
         21    1    1    2  505  506 -0.49870065504E+02  0.24895113942E+02 -0.50920105910E+03  0.51224262681E+03  0.00000000000E+00 0.  1.
         21    1    1    2  506  504 -0.48833162857E+02  0.54015800282E+02  0.58367126221E+01  0.73051021135E+02  0.00000000000E+00 0.  1.
<scales pt_clust_3="36.69492" pt_clust_4="116.05020" pt_clust_5="55.82649" pt_clust_6="14000.00000"></scales>
<clustering>
<clus scale="   36.695">  1  3  2 -1</clus>
<clus scale="   55.826">  2  5  1 -1</clus>
<clus scale="  116.050">  1  4  2 -1</clus>
<clus scale="   36.695">  1  3  2 -1</clus>
</clustering>
</event>
<event>
 6    0  0.1555973E+002  0.2138317E+03  0.7546771E-02  0.1138567E+00
         21   -1    0    0  505  501  0.00000000000E+00  0.00000000000E+00  0.19524009812E+02  0.19524009812E+02  0.00000000000E+00 0. -1.
         21   -1    0    0  503  502 -0.00000000000E+00 -0.00000000000E+00 -0.31077185134E+04  0.31077185134E+04  0.00000000000E+00 0. -1.
         21    1    1    2  503  501 -0.18724371255E+03  0.24122941426E+02 -0.23798447348E+04  0.23873213202E+04  0.00000000000E+00 0. -1.
         21    1    1    2  504  506  0.42995741488E+02  0.14150638928E+02 -0.92480666350E+02  0.10296381897E+03  0.00000000000E+00 0. -1.
         21    1    1    2  505  504  0.11734479713E+03 -0.15909752495E+02 -0.54746935537E+03  0.56012999983E+03  0.00000000000E+00 0. -1.
         21    1    1    2  506  502  0.26903173930E+02 -0.22363827860E+02 -0.68399747073E+02  0.76827384205E+02  0.00000000000E+00 0. -1.
<scales pt_clust_3="188.79122" pt_clust_4="65.29931" pt_clust_5="65.29931" pt_clust_6="33.92461"></scales>
<clustering>
<clus scale="   33.925">  4  6 -1 -1</clus>
<clus scale="   65.299">  4  5 -1 -1</clus>
<clus scale="  188.791">  2  3  1 -1</clus>
<clus scale="  213.832">  1  3  2 -1</clus>
</clustering>
</event>
<event>
 6    0  0.1555973E+002  0.1198178E+03  0.7546771E-02  0.1243398E+00
         21   -1    0    0  504  501  0.00000000000E+00  0.00000000000E+00  0.93927410229E+03  0.93927410229E+03  0.00000000000E+00 0.  1.
         21   -1    0    0  506  502 -0.00000000000E+00 -0.00000000000E+00 -0.16527705881E+03  0.16527705881E+03  0.00000000000E+00 0. -1.
         21    1    1    2  503  502 -0.70320692444E+02 -0.80853966377E+02 -0.13298814074E+03  0.17078702890E+03  0.00000000000E+00 0. -1.
         21    1    1    2  504  503  0.64789076788E+02 -0.34724359757E+02  0.54156210303E+03  0.54652805699E+03  0.00000000000E+00 0.  1.
         21    1    1    2  505  501 -0.22912029071E+01  0.53369492355E+02  0.25236121504E+03  0.25795297087E+03  0.00000000000E+00 0. -1.
         21    1    1    2  506  505  0.78228185635E+01  0.62208833779E+02  0.11306186615E+03  0.12928310434E+03  0.00000000000E+00 0.  1.
<scales pt_clust_3="106.43075" pt_clust_4="73.50786" pt_clust_5="50.79867" pt_clust_6="50.79867"></scales>
<clustering>
<clus scale="   50.799">  5  6 -1 -1</clus>
<clus scale="   73.508">  1  4  2 -1</clus>
<clus scale="  106.431">  2  3  1 -1</clus>
<clus scale="   73.508">  1  3  2 -1</clus>
</clustering>
</event>
<event>
 6    0  0.1555973E+002  0.1210354E+03  0.7546771E-02  0.1241399E+00
         21   -1    0    0  503  501  0.00000000000E+00  0.00000000000E+00  0.25696783668E+03  0.25696783668E+03  0.00000000000E+00 0. -1.
         21   -1    0    0  505  502 -0.00000000000E+00 -0.00000000000E+00 -0.95643043508E+03  0.95643043508E+03  0.00000000000E+00 0.  1.
         21    1    1    2  503  504 -0.52505343279E+02  0.20372776679E+02  0.55156034266E+02  0.78829240884E+02  0.00000000000E+00 0. -1.
         21    1    1    2  504  506 -0.12283787111E+03 -0.98686801156E+01 -0.88025747749E+02  0.15144327549E+03  0.00000000000E+00 0. -1.
         21    1    1    2  505  501  0.15155015022E+03  0.36355071583E+02  0.11880672518E+03  0.19596983750E+03  0.00000000000E+00 0. -1.
         21    1    1    2  506  502  0.23793064164E+02 -0.46859168146E+02 -0.78539961008E+03  0.78715591788E+03  0.00000000000E+00 0.  1.
<scales pt_clust_3="53.65256" pt_clust_4="14000.00000" pt_clust_5="121.03539" pt_clust_6="52.55370"></scales>
<clustering>
<clus scale="   52.554">  2  6  1 -1</clus>
<clus scale="   53.653">  1  3  2 -1</clus>
<clus scale="  121.035">  1  5  2 -1</clus>
<clus scale="   53.653">  1  3  2 -1</clus>
</clustering>
</event>
<event>
 6    0  0.1555973E+002  0.1418484E+03  0.7546771E-02  0.1210863E+00
         21   -1    0    0  506  501  0.00000000000E+00  0.00000000000E+00  0.43714000636E+03  0.43714000636E+03  0.00000000000E+00 0. -1.
         21   -1    0    0  505  502 -0.00000000000E+00 -0.00000000000E+00 -0.11145513684E+03  0.11145513684E+03  0.00000000000E+00 0. -1.
         21    1    1    2  503  504  0.45442280938E+02  0.72334151743E+02  0.14578414686E+03  0.16896818601E+03  0.00000000000E+00 0. -1.
         21    1    1    2  504  501  0.18701664191E+02  0.36785147894E+02  0.19203631216E+03  0.19642007162E+03  0.00000000000E+00 0. -1.
         21    1    1    2  505  503 -0.13712190590E+02  0.30753027825E+02  0.27145869202E+01  0.33780791484E+02  0.00000000000E+00 0.  1.
         21    1    1    2  506  502 -0.50431754539E+02 -0.13987232746E+03 -0.14850176423E+02  0.14942609409E+03  0.00000000000E+00 0. -1.
<scales pt_clust_3="40.01071" pt_clust_4="40.01071" pt_clust_5="33.67154" pt_clust_6="129.44703"></scales>
<clustering>
<clus scale="   33.672">  2  5  1 -1</clus>
<clus scale="   40.011">  3  4 -1 -1</clus>
<clus scale="  129.447">  2  6  1 -1</clus>
<clus scale="  141.848">  1  3  2 -1</clus>
</clustering>
</event>
<event>
 6    0  0.1555973E+002  0.1013086E+03  0.7546771E-02  0.1277568E+00
         21   -1    0    0  506  501  0.00000000000E+00  0.00000000000E+00  0.29506244245E+03  0.29506244245E+03  0.00000000000E+00 0.  1.
         21   -1    0    0  505  502 -0.00000000000E+00 -0.00000000000E+00 -0.27349505970E+03  0.27349505970E+03  0.00000000000E+00 0.  1.
         21    1    1    2  503  502 -0.98062212751E+01  0.84305689123E+02 -0.22138465618E+03  0.23709655667E+03  0.00000000000E+00 0.  1.
         21    1    1    2  504  501 -0.37036895469E+01 -0.47534696054E+02  0.32473906980E+02  0.57687254049E+02  0.00000000000E+00 0.  1.
         21    1    1    2  505  504  0.30059892698E+02 -0.98400123379E+02  0.16837500114E+03  0.19732288878E+03  0.00000000000E+00 0.  1.
         21    1    1    2  506  503 -0.16549981876E+02  0.61629130310E+02  0.42103130809E+02  0.76450802656E+02  0.00000000000E+00 0. -1.
<scales pt_clust_3="86.97798" pt_clust_4="35.36065" pt_clust_5="35.36065" pt_clust_6="63.81263"></scales>
<clustering>
<clus scale="   35.361">  4  5 -1 -1</clus>
<clus scale="   63.813">  1  6  2 -1</clus>
<clus scale="   86.978">  2  3  1 -1</clus>
<clus scale="   63.813">  1  3  2 -1</clus>
</clustering>
</event>
<event>
 6    0  0.1555973E+002  0.1285406E+03  0.7546771E-02  0.1229637E+00
         21   -1    0    0  505  501  0.00000000000E+00  0.00000000000E+00  0.10052565372E+04  0.10052565372E+04  0.00000000000E+00 0. -1.
         21   -1    0    0  504  502 -0.00000000000E+00 -0.00000000000E+00 -0.16966417230E+03  0.16966417230E+03  0.00000000000E+00 0. -1.
         21    1    1    2  503  501  0.28731888992E+02  0.98966699660E+02  0.50005213803E+03  0.51056054473E+03  0.00000000000E+00 0.  1.
         21    1    1    2  504  506  0.58666255396E+02 -0.12103913040E+03 -0.11380653325E+03  0.17619343807E+03  0.00000000000E+00 0. -1.
         21    1    1    2  505  502  0.46752775791E+02  0.86622420717E+01  0.19013622665E+03  0.19599143136E+03  0.00000000000E+00 0.  1.
         21    1    1    2  506  503 -0.13415092018E+03  0.13410188665E+02  0.25921053349E+03  0.29217529535E+03  0.00000000000E+00 0. -1.
<scales pt_clust_3="119.30303" pt_clust_4="14000.00000" pt_clust_5="47.54846" pt_clust_6="128.54058"></scales>
<clustering>
<clus scale="   47.548">  1  5  2 -1</clus>
<clus scale="  119.303">  1  3  2 -1</clus>
<clus scale="  128.541">  1  6  2 -1</clus>
<clus scale="   47.548">  1  3  2 -1</clus>
</clustering>
</event>
<event>
 6    0  0.1555973E+002  0.1901186E+03  0.7546771E-02  0.1158354E+00
         21   -1    0    0  504  501  0.00000000000E+00  0.00000000000E+00  0.24671314889E+04  0.24671314889E+04  0.00000000000E+00 0.  1.
         21   -1    0    0  505  502 -0.00000000000E+00 -0.00000000000E+00 -0.30029760406E+02  0.30029760406E+02  0.00000000000E+00 0.  1.
         21    1    1    2  503  502 -0.20135554061E+02  0.74196658803E+02  0.48945944996E+03  0.49546053109E+03  0.00000000000E+00 0.  1.
         21    1    1    2  504  503  0.61384179833E+02  0.11887504860E+03  0.59278623386E+03  0.60769631706E+03  0.00000000000E+00 0.  1.
         21    1    1    2  505  506 -0.28372790252E+02 -0.33406833948E+02  0.17668595596E+02  0.47256862480E+02  0.00000000000E+00 0.  1.
         21    1    1    2  506  501 -0.12875835520E+02 -0.15966487346E+03  0.13371874491E+04  0.13467475387E+04  0.00000000000E+00 0.  1.
<scales pt_clust_3="65.59832" pt_clust_4="65.59832" pt_clust_5="43.82958" pt_clust_6="171.53400"></scales>
<clustering>
<clus scale="   43.830">  2  5  1 -1</clus>
<clus scale="   65.598">  3  4 -1 -1</clus>
<clus scale="  171.534">  1  6  2 -1</clus>
<clus scale="  171.534">  1  3  2 -1</clus>
</clustering>
</event>
<event>
 6    0  0.1555973E+002  0.1137234E+03  0.7546771E-02  0.1253826E+00
         21   -1    0    0  503  501  0.00000000000E+00  0.00000000000E+00  0.80664377389E+02  0.80664377389E+02  0.00000000000E+00 0. -1.
         21   -1    0    0  506  502 -0.00000000000E+00 -0.00000000000E+00 -0.72653387972E+03  0.72653387972E+03  0.00000000000E+00 0.  1.
         21    1    1    2  503  504 -0.98859516640E+01 -0.77890711189E+02 -0.89631956807E+02  0.11915780550E+03  0.00000000000E+00 0.  1.
         21    1    1    2  504  502  0.37899524506E+02 -0.47706318224E+02 -0.55038671180E+03  0.55374885939E+03  0.00000000000E+00 0.  1.
         21    1    1    2  505  501 -0.31731740362E+02  0.56422078234E+02  0.41208834177E+00  0.64734257356E+02  0.00000000000E+00 0. -1.
         21    1    1    2  506  505  0.37181675195E+01  0.69174951179E+02 -0.62629220697E+01  0.69557334863E+02  0.00000000000E+00 0. -1.
<scales pt_clust_3="107.20256" pt_clust_4="60.92837" pt_clust_5="36.69024" pt_clust_6="36.69024"></scales>
<clustering>
<clus scale="   36.690">  5  6 -1 -1</clus>
<clus scale="   60.928">  2  4  1 -1</clus>
<clus scale="  107.203">  2  3  1 -1</clus>
<clus scale="  113.723">  1  3  2 -1</clus>
</clustering>
</event>
<event>
 6    0  0.1555973E+002  0.6502306E+02  0.7546771E-02  0.1377885E+00
         21   -1    0    0  506  501  0.00000000000E+00  0.00000000000E+00  0.51697513847E+03  0.51697513847E+03  0.00000000000E+00 0.  1.
         21   -1    0    0  504  502 -0.00000000000E+00 -0.00000000000E+00 -0.12743878129E+03  0.12743878129E+03  0.00000000000E+00 0.  1.
         21    1    1    2  503  501  0.10331281760E+03 -0.53598392203E+01  0.15449203665E+03  0.18593024376E+03  0.00000000000E+00 0.  1.
         21    1    1    2  504  503 -0.19895447458E+02 -0.42027547719E+02  0.16200909116E+02  0.49240360001E+02  0.00000000000E+00 0.  1.
         21    1    1    2  505  502 -0.25175108611E+02  0.45871617878E+02 -0.85027088741E+02  0.99837854745E+02  0.00000000000E+00 0.  1.
         21    1    1    2  506  505 -0.58242261531E+02  0.15157690615E+01  0.30387050016E+03  0.30940546125E+03  0.00000000000E+00 0.  1.
<scales pt_clust_3="14000.00000" pt_clust_4="46.49886" pt_clust_5="43.14097" pt_clust_6="65.02306"></scales>
<clustering>
<clus scale="   46.499">  2  4  1 -1</clus>
<clus scale="   43.141">  2  5  1 -1</clus>
<clus scale="   65.023">  1  6  2 -1</clus>
<clus scale="   65.023">  1  3  2 -1</clus>
</clustering>
</event>
<event>
 6    0  0.1555973E+002  0.1093503E+03  0.7546771E-02  0.1261778E+00
         21   -1    0    0  505  501  0.00000000000E+00  0.00000000000E+00  0.14582876489E+04  0.14582876489E+04  0.00000000000E+00 0. -1.
         21   -1    0    0  504  502 -0.00000000000E+00 -0.00000000000E+00 -0.38081791321E+02  0.38081791321E+02  0.00000000000E+00 0. -1.
         21    1    1    2  503  502  0.12382871634E+02 -0.32615632148E+02  0.11512908838E+03  0.12029888596E+03  0.00000000000E+00 0. -1.
         21    1    1    2  504  501  0.23172562593E+01 -0.60836516705E+02  0.24868976713E+01  0.60931404886E+02  0.00000000000E+00 0. -1.
         21    1    1    2  505  506 -0.61640096228E+02  0.10509390079E+03  0.11058892783E+04  0.11125804803E+04  0.00000000000E+00 0. -1.
         21    1    1    2  506  503  0.46939968335E+02 -0.11641751937E+02  0.19670059326E+03  0.20255866904E+03  0.00000000000E+00 0. -1.
<scales pt_clust_3="33.12782" pt_clust_4="60.88063" pt_clust_5="102.15747" pt_clust_6="33.12782"></scales>
<clustering>
<clus scale="   33.128">  3  6 -1 -1</clus>
<clus scale="   60.881">  2  4  1 -1</clus>
<clus scale="  102.157">  1  5  2 -1</clus>
<clus scale="  102.157">  1  3  2 -1</clus>
</clustering>
</event>
<event>
 6    0  0.1555973E+002  0.9116356E+02  0.7546771E-02  0.1300058E+00
         21   -1    0    0  506  501  0.00000000000E+00  0.00000000000E+00  0.19581222495E+02  0.19581222495E+02  0.00000000000E+00 0.  1.
         21   -1    0    0  505  502 -0.00000000000E+00 -0.00000000000E+00 -0.89006629360E+03  0.89006629360E+03  0.00000000000E+00 0.  1.
         21    1    1    2  503  502  0.53259917997E+02  0.39628558112E+02 -0.16080799831E+03  0.17397199144E+03  0.00000000000E+00 0.  1.
         21    1    1    2  504  501 -0.25379444594E+02 -0.72747696234E+02 -0.25151114386E+03  0.26304790249E+03  0.00000000000E+00 0.  1.
         21    1    1    2  505  504 -0.67153651141E+02  0.36479154997E+02 -0.28949080848E+03  0.29940819929E+03  0.00000000000E+00 0.  1.
         21    1    1    2  506  503  0.39273177739E+02 -0.33600168752E+01 -0.16867512045E+03  0.17321942288E+03  0.00000000000E+00 0.  1.
<scales pt_clust_3="35.35299" pt_clust_4="78.77704" pt_clust_5="76.42213" pt_clust_6="35.35299"></scales>
<clustering>
<clus scale="   35.353">  3  6 -1 -1</clus>
<clus scale="   76.422">  2  5  1 -1</clus>
<clus scale="   78.777">  1  4  2 -1</clus>
<clus scale="   78.777">  1  3  2 -1</clus>
</clustering>
</event>
<event>
 6    0  0.1555973E+002  0.1244107E+03  0.7546771E-02  0.1235993E+00
         21   -1    0    0  505  501  0.00000000000E+00  0.00000000000E+00  0.29309768359E+03  0.29309768359E+03  0.00000000000E+00 0.  1.
         21   -1    0    0  503  502 -0.00000000000E+00 -0.00000000000E+00 -0.10838969393E+03  0.10838969393E+03  0.00000000000E+00 0.  1.
         21    1    1    2  503  501  0.26688296174E+02 -0.14524168454E+03  0.23929349180E+02  0.14959955158E+03  0.00000000000E+00 0.  1.
         21    1    1    2  504  506 -0.17102511405E+02  0.52479668672E+02  0.45769746788E+02  0.71704122903E+02  0.00000000000E+00 0.  1.
         21    1    1    2  505  504 -0.40469304245E+02  0.40003193283E+02  0.10330453057E+03  0.11794001058E+03  0.00000000000E+00 0.  1.
         21    1    1    2  506  502  0.30883519476E+02  0.52758822582E+02  0.11704363121E+02  0.62243692463E+02  0.00000000000E+00 0.  1.
<scales pt_clust_3="116.63561" pt_clust_4="42.63715" pt_clust_5="42.63715" pt_clust_6="61.13334"></scales>
<clustering>
<clus scale="   42.637">  4  5 -1 -1</clus>
<clus scale="   61.133">  2  6  1 -1</clus>
<clus scale="  116.636">  2  3  1 -1</clus>
<clus scale="  124.411">  1  3  2 -1</clus>
</clustering>
</event>
<event>
 6    0  0.1555973E+002  0.2037984E+03  0.7546771E-02  0.1146573E+00
         21   -1    0    0  504  501  0.00000000000E+00  0.00000000000E+00  0.43475265356E+03  0.43475265356E+03  0.00000000000E+00 0. -1.
         21   -1    0    0  501  502 -0.00000000000E+00 -0.00000000000E+00 -0.10947595680E+04  0.10947595680E+04  0.00000000000E+00 0.  1.
         21    1    1    2  503  506  0.36284537326E+02  0.59679379912E+02  0.78245303225E+02  0.10488338053E+03  0.00000000000E+00 0. -1.
         21    1    1    2  504  503  0.98495312744E+01  0.67644440483E+02  0.22053323381E+03  0.23088458330E+03  0.00000000000E+00 0. -1.
         21    1    1    2  505  502 -0.12299190359E+03 -0.15879995971E+03 -0.10507800773E+04  0.10698052189E+04  0.00000000000E+00 0.  1.
         21    1    1    2  506  505  0.76857834989E+02  0.31476139314E+02  0.91994625861E+02  0.12393903878E+03  0.00000000000E+00 0. -1.
<scales pt_clust_3="43.66803" pt_clust_4="68.35776" pt_clust_5="198.15709" pt_clust_6="43.66803"></scales>
<clustering>
<clus scale="   43.668">  3  6 -1 -1</clus>
<clus scale="   68.358">  1  4  2 -1</clus>
<clus scale="  198.157">  2  5  1 -1</clus>
<clus scale="   68.358">  1  3  2 -1</clus>
</clustering>
</event>
<event>
 6    0  0.1555973E+002  0.1318294E+03  0.7546771E-02  0.1224766E+00
         21   -1    0    0  505  501  0.00000000000E+00  0.00000000000E+00  0.84217111760E+03  0.84217111760E+03  0.00000000000E+00 0. -1.
         21   -1    0    0  504  502 -0.00000000000E+00 -0.00000000000E+00 -0.11328445642E+03  0.11328445642E+03  0.00000000000E+00 0. -1.
         21    1    1    2  503  502 -0.43135584552E+02 -0.13319207101E+03 -0.40352685287E+02  0.14570224996E+03  0.00000000000E+00 0. -1.
         21    1    1    2  504  501  0.88770609180E+02 -0.33622129691E+01  0.31054270437E+03  0.32299891140E+03  0.00000000000E+00 0. -1.
         21    1    1    2  505  506  0.18990001826E+02  0.41635532839E+02  0.96700503661E+02  0.10698189180E+03  0.00000000000E+00 0. -1.
         21    1    1    2  506  503 -0.64625026454E+02  0.94918751136E+02  0.36199613844E+03  0.37977252086E+03  0.00000000000E+00 0. -1.
<scales pt_clust_3="131.82937" pt_clust_4="97.96794" pt_clust_5="45.76175" pt_clust_6="14000.00000"></scales>
<clustering>
<clus scale="   45.762">  1  5  2 -1</clus>
<clus scale="   97.968">  1  4  2 -1</clus>
<clus scale="  131.829">  2  3  1 -1</clus>
<clus scale="   45.762">  1  3  2 -1</clus>
</clustering>
</event>
<event>
 6    0  0.1555973E+002  0.2284737E+03  0.7546771E-02  0.1127719E+00
         21   -1    0    0  506  501  0.00000000000E+00  0.00000000000E+00  0.72869794484E+03  0.72869794484E+03  0.00000000000E+00 0.  1.
         21   -1    0    0  503  502 -0.00000000000E+00 -0.00000000000E+00 -0.20549326372E+03  0.20549326372E+03  0.00000000000E+00 0.  1.
         21    1    1    2  503  505 -0.37374594246E+02  0.34958769447E+02  0.16744711313E+03  0.17509286550E+03  0.00000000000E+00 0. -1.
         21    1    1    2  504  501  0.27333640338E+01  0.32869343568E+02  0.19068965767E+03  0.19352108559E+03  0.00000000000E+00 0.  1.
         21    1    1    2  505  504  0.30918895995E+02  0.12902408475E+03  0.29922990600E+03  0.32732511242E+03  0.00000000000E+00 0.  1.
         21    1    1    2  506  502  0.37223342173E+01 -0.19685219777E+03 -0.13416199567E+03  0.23825214505E+03  0.00000000000E+00 0.  1.
<scales pt_clust_3="50.41028" pt_clust_4="31.20739" pt_clust_5="50.41028" pt_clust_6="196.88739"></scales>
<clustering>
<clus scale="   31.207">  4  5 -1 -1</clus>
<clus scale="   50.410">  3  4 -1 -1</clus>
<clus scale="  196.887">  2  6  1 -1</clus>
<clus scale="  228.474">  1  3  2 -1</clus>
</clustering>
</event>
<event>
 6    0  0.1555973E+002  0.1029664E+03  0.7546771E-02  0.1274179E+00
         21   -1    0    0  505  501  0.00000000000E+00  0.00000000000E+00  0.32779209637E+03  0.32779209637E+03  0.00000000000E+00 0.  1.
         21   -1    0    0  504  502 -0.00000000000E+00 -0.00000000000E+00 -0.37744634001E+03  0.37744634001E+03  0.00000000000E+00 0. -1.
         21    1    1    2  503  506 -0.59161375286E+02  0.39535986960E+02  0.55688657629E+02  0.90357009574E+02  0.00000000000E+00 0.  1.
         21    1    1    2  504  503  0.40717004501E+02 -0.99949455930E+02 -0.33935341256E+03  0.35610182085E+03  0.00000000000E+00 0. -1.
         21    1    1    2  505  502  0.34944844683E+02  0.29716800733E+02  0.37632704465E+02  0.59333387407E+02  0.00000000000E+00 0.  1.
         21    1    1    2  506  501 -0.16500473898E+02  0.30696668237E+02  0.19637780682E+03  0.19944621855E+03  0.00000000000E+00 0.  1.
<scales pt_clust_3="102.96639" pt_clust_4="14000.00000" pt_clust_5="50.23969" pt_clust_6="34.85041"></scales>
<clustering>
<clus scale="   34.850">  1  6  2 -1</clus>
<clus scale="   50.240">  1  5  2 -1</clus>
<clus scale="  102.966">  1  3  2 -1</clus>
<clus scale="   34.850">  1  3  2 -1</clus>
</clustering>
</event>
<event>
 6    0  0.1555973E+002  0.1588903E+03  0.7546771E-02  0.1189955E+00
         21   -1    0    0  505  501  0.00000000000E+00  0.00000000000E+00  0.16331554990E+03  0.16331554990E+03  0.00000000000E+00 0.  1.
         21   -1    0    0  503  502 -0.00000000000E+00 -0.00000000000E+00 -0.98477021822E+03  0.98477021822E+03  0.00000000000E+00 0.  1.
         21    1    1    2  503  504 -0.14052359865E+03 -0.65154015062E+02 -0.89204631985E+03  0.90539414854E+03  0.00000000000E+00 0.  1.
         21    1    1    2  504  501  0.41292807378E+02 -0.54565847532E+02  0.20224719341E+01  0.68458878539E+02  0.00000000000E+00 0.  1.
         21    1    1    2  505  506  0.37209602695E+02  0.58843153108E+02  0.49043246224E+02  0.85160502586E+02  0.00000000000E+00 0.  1.
         21    1    1    2  506  502  0.62021188571E+02  0.60876709485E+02  0.19525933378E+02  0.89072238458E+02  0.00000000000E+00 0.  1.
<scales pt_clust_3="154.17658" pt_clust_4="68.42900" pt_clust_5="34.38331" pt_clust_6="34.38331"></scales>
<clustering>
<clus scale="   34.383">  5  6 -1 -1</clus>
<clus scale="   68.429">  1  4  2 -1</clus>
<clus scale="  154.177">  2  3  1 -1</clus>
<clus scale="   68.429">  1  3  2 -1</clus>
</clustering>
</event>
<event>
 6    0  0.1555973E+002  0.1216372E+03  0.7546771E-02  0.1240420E+00
         21   -1    0    0  506  501  0.00000000000E+00  0.00000000000E+00  0.22437956780E+03  0.22437956780E+03  0.00000000000E+00 0. -1.
         21   -1    0    0  503  502 -0.00000000000E+00 -0.00000000000E+00 -0.47202684708E+03  0.47202684708E+03  0.00000000000E+00 0.  1.
         21    1    1    2  503  504 -0.36990083781E+02 -0.14184349739E+03  0.91785509321E+02  0.17295208519E+03  0.00000000000E+00 0. -1.
         21    1    1    2  504  501 -0.58820857315E+02  0.19360835360E+02  0.23483611837E+02  0.66228507653E+02  0.00000000000E+00 0.  1.
         21    1    1    2  505  502  0.78967785908E+02  0.91521098712E+02 -0.39282304601E+03  0.41100117786E+03  0.00000000000E+00 0.  1.
         21    1    1    2  506  505  0.16843155187E+02  0.30961563323E+02  0.29906645568E+02  0.46224644176E+02  0.00000000000E+00 0.  1.
<scales pt_clust_3="14000.00000" pt_clust_4="60.97815" pt_clust_5="121.63721" pt_clust_6="35.24642"></scales>
<clustering>
<clus scale="   35.246">  1  6  2 -1</clus>
<clus scale="   60.978">  1  4  2 -1</clus>
<clus scale="  121.637">  2  5  1 -1</clus>
<clus scale="   35.246">  1  3  2 -1</clus>
</clustering>
</event>
<event>
 6    0  0.1555973E+002  0.8725802E+02  0.7546771E-02  0.1309631E+00
         21   -1    0    0  504  501  0.00000000000E+00  0.00000000000E+00  0.86300610272E+02  0.86300610272E+02  0.00000000000E+00 0. -1.
         21   -1    0    0  505  502 -0.00000000000E+00 -0.00000000000E+00 -0.54998043808E+03  0.54998043808E+03  0.00000000000E+00 0. -1.
         21    1    1    2  503  501  0.15626918790E+02 -0.13089314869E+03 -0.40017316371E+02  0.13776284903E+03  0.00000000000E+00 0. -1.
         21    1    1    2  504  506 -0.12978007077E+02  0.64811008481E+02 -0.36077600648E+02  0.75302647739E+02  0.00000000000E+00 0. -1.
         21    1    1    2  505  503  0.65423908999E+02 -0.88829076017E+01 -0.19089535012E+03  0.20199066467E+03  0.00000000000E+00 0.  1.
         21    1    1    2  506  502 -0.68072820713E+02  0.74965047808E+02 -0.19668956067E+03  0.22122488691E+03  0.00000000000E+00 0. -1.
<scales pt_clust_3="14000.00000" pt_clust_4="63.46803" pt_clust_5="66.02419" pt_clust_6="87.25802"></scales>
<clustering>
<clus scale="   66.024">  2  5  1 -1</clus>
<clus scale="   63.468">  1  4  2 -1</clus>
<clus scale="   87.258">  2  6  1 -1</clus>
<clus scale="   63.468">  1  3  2 -1</clus>
</clustering>
</event>
<event>
 6    0  0.1555973E+002  0.1497149E+03  0.7546771E-02  0.1200824E+00
         21   -1    0    0  506  501  0.00000000000E+00  0.00000000000E+00  0.76161873608E+03  0.76161873608E+03  0.00000000000E+00 0. -1.
         21   -1    0    0  504  502 -0.00000000000E+00 -0.00000000000E+00 -0.13530008351E+04  0.13530008351E+04  0.00000000000E+00 0.  1.
         21    1    1    2  503  502 -0.14199740468E+03  0.19334862872E+02 -0.43061059239E+02  0.14963741070E+03  0.00000000000E+00 0.  1.
         21    1    1    2  504  501  0.69086887255E+01 -0.45638982231E+02 -0.12482992231E+04  0.12491523514E+04  0.00000000000E+00 0.  1.
         21    1    1    2  505  503  0.95314673021E+02 -0.78422017085E+01  0.39751558477E+03  0.40885819933E+03  0.00000000000E+00 0. -1.
         21    1    1    2  506  505  0.39774042936E+02  0.34146321068E+02  0.30246259849E+03  0.30697160979E+03  0.00000000000E+00 0.  1.
<scales pt_clust_3="137.52293" pt_clust_4="46.15893" pt_clust_5="43.81241" pt_clust_6="43.81241"></scales>
<clustering>
<clus scale="   43.812">  5  6 -1 -1</clus>
<clus scale="   46.159">  2  4  1 -1</clus>
<clus scale="  137.523">  2  3  1 -1</clus>
<clus scale="  149.715">  1  3  2 -1</clus>
</clustering>
</event>
<event>
 6    0  0.1555973E+002  0.1864328E+03  0.7546771E-02  0.1161719E+00
         21   -1    0    0  505  501  0.00000000000E+00  0.00000000000E+00  0.40241779650E+03  0.40241779650E+03  0.00000000000E+00 0. -1.
         21   -1    0    0  504  502 -0.00000000000E+00 -0.00000000000E+00 -0.20320125837E+03  0.20320125837E+03  0.00000000000E+00 0. -1.
         21    1    1    2  503  506  0.67689138615E+02 -0.16370309369E+03  0.45062379564E+02  0.18278714512E+03  0.00000000000E+00 0. -1.
         21    1    1    2  504  501 -0.71389412741E+02  0.18561979991E+03  0.76279332476E+02  0.21300163129E+03  0.00000000000E+00 0. -1.
         21    1    1    2  505  503  0.36792235878E+02 -0.11986527690E+02  0.13644679444E+03  0.14182761783E+03  0.00000000000E+00 0. -1.
         21    1    1    2  506  502 -0.33091961752E+02 -0.99301785309E+01 -0.58571968343E+02  0.68002660638E+02  0.00000000000E+00 0. -1.
<scales pt_clust_3="14000.00000" pt_clust_4="186.43283" pt_clust_5="38.15155" pt_clust_6="34.54977"></scales>
<clustering>
<clus scale="   34.550">  2  6  1 -1</clus>
<clus scale="   38.152">  1  5  2 -1</clus>
<clus scale="  186.433">  1  4  2 -1</clus>
<clus scale="   38.152">  1  3  2 -1</clus>
</clustering>
</event>
<event>
 6    0  0.1555973E+002  0.1228865E+03  0.7546771E-02  0.1238410E+00
         21   -1    0    0  502  501  0.00000000000E+00  0.00000000000E+00  0.45633884545E+02  0.45633884545E+02  0.00000000000E+00 0.  1.
         21   -1    0    0  503  502 -0.00000000000E+00 -0.00000000000E+00 -0.10531216045E+04  0.10531216045E+04  0.00000000000E+00 0.  1.
         21    1    1    2  503  506 -0.40096453990E+02  0.52807335222E+01 -0.57085297410E+03  0.57228378433E+03  0.00000000000E+00 0.  1.
         21    1    1    2  504  501  0.35318487235E+02 -0.54066149925E+02 -0.56986058673E+02  0.86127550711E+02  0.00000000000E+00 0. -1.
         21    1    1    2  505  504  0.35957710633E+02 -0.46721500467E+02 -0.13258257515E+02  0.60428775863E+02  0.00000000000E+00 0.  1.
         21    1    1    2  506  505 -0.31179743878E+02  0.95506916870E+02 -0.36639042971E+03  0.37991537819E+03  0.00000000000E+00 0.  1.
<scales pt_clust_3="40.44270" pt_clust_4="34.52999" pt_clust_5="34.52999" pt_clust_6="117.45229"></scales>
<clustering>
<clus scale="   34.530">  4  5 -1 -1</clus>
<clus scale="   40.443">  2  3  1 -1</clus>
<clus scale="  117.452">  2  6  1 -1</clus>
<clus scale="  122.886">  1  3  2 -1</clus>
</clustering>
</event>
<event>
 6    0  0.1555973E+002  0.2176217E+03  0.7546771E-02  0.1135669E+00
         21   -1    0    0  506  501  0.00000000000E+00  0.00000000000E+00  0.20736487932E+03  0.20736487932E+03  0.00000000000E+00 0.  1.
         21   -1    0    0  503  502 -0.00000000000E+00 -0.00000000000E+00 -0.12099258948E+04  0.12099258948E+04  0.00000000000E+00 0.  1.
         21    1    1    2  503  504  0.49843513864E+02 -0.43219870913E+02 -0.91615910352E+02  0.11289733454E+03  0.00000000000E+00 0.  1.
         21    1    1    2  504  501  0.96463887751E+02 -0.21249591967E+03  0.70078030333E+02  0.24366109220E+03  0.00000000000E+00 0.  1.
         21    1    1    2  505  502 -0.72372318643E+02  0.94511677595E+02 -0.79444311241E+03  0.80331193727E+03  0.00000000000E+00 0.  1.
         21    1    1    2  506  505 -0.73935082972E+02  0.16120411299E+03 -0.18658002303E+03  0.25742041010E+03  0.00000000000E+00 0.  1.
<scales pt_clust_3="65.97221" pt_clust_4="14000.00000" pt_clust_5="73.06656" pt_clust_6="217.62167"></scales>
<clustering>
<clus scale="   65.972">  2  3  1 -1</clus>
<clus scale="   73.067">  2  5  1 -1</clus>
<clus scale="  217.622">  2  6  1 -1</clus>
<clus scale="  217.622">  1  3  2 -1</clus>
</clustering>
</event>
<event>
 6    0  0.1555973E+002  0.1490792E+03  0.7546771E-02  0.1201609E+00
         21   -1    0    0  504  501  0.00000000000E+00  0.00000000000E+00  0.49834183670E+03  0.49834183670E+03  0.00000000000E+00 0.  1.
         21   -1    0    0  506  502 -0.00000000000E+00 -0.00000000000E+00 -0.40958104884E+03  0.40958104884E+03  0.00000000000E+00 0.  1.
         21    1    1    2  503  501  0.29101351456E+02 -0.79369296401E+02  0.33731321506E+03  0.34774499122E+03  0.00000000000E+00 0.  1.
         21    1    1    2  504  505 -0.65375482822E+02  0.71731167016E+02  0.38449944810E+01  0.97129285276E+02  0.00000000000E+00 0.  1.
         21    1    1    2  505  502  0.90227317362E+01  0.62883169701E+02 -0.34556608616E+03  0.35135683091E+03  0.00000000000E+00 0.  1.
         21    1    1    2  506  503  0.27251399629E+02 -0.55245040316E+02  0.93168664482E+02  0.11169177813E+03  0.00000000000E+00 0.  1.
<scales pt_clust_3="57.07769" pt_clust_4="133.24321" pt_clust_5="63.52718" pt_clust_6="57.07769"></scales>
<clustering>
<clus scale="   57.078">  3  6 -1 -1</clus>
<clus scale="   63.527">  2  5  1 -1</clus>
<clus scale="  133.243">  2  4  1 -1</clus>
<clus scale="  149.079">  1  3  2 -1</clus>
</clustering>
</event>
<event>
 6    0  0.1555973E+002  0.1286592E+03  0.7546771E-02  0.1229459E+00
         21   -1    0    0  504  501  0.00000000000E+00  0.00000000000E+00  0.22536944357E+02  0.22536944357E+02  0.00000000000E+00 0. -1.
         21   -1    0    0  503  502 -0.00000000000E+00 -0.00000000000E+00 -0.13100991031E+04  0.13100991031E+04  0.00000000000E+00 0. -1.
         21    1    1    2  503  501  0.12967032024E+03  0.31023594998E+01 -0.69334316205E+03  0.70537136102E+03  0.00000000000E+00 0. -1.
         21    1    1    2  504  505 -0.28372726004E+02  0.53385202750E+02 -0.94310371174E+02  0.11202427221E+03  0.00000000000E+00 0. -1.
         21    1    1    2  505  506 -0.63048801378E+02 -0.30316298486E+02 -0.20253630542E+03  0.21427828710E+03  0.00000000000E+00 0. -1.
         21    1    1    2  506  502 -0.38248792862E+02 -0.26171263765E+02 -0.29737232014E+03  0.30096212717E+03  0.00000000000E+00 0.  1.
<scales pt_clust_3="120.17146" pt_clust_4="60.45653" pt_clust_5="37.40503" pt_clust_6="37.40503"></scales>
<clustering>
<clus scale="   37.405">  5  6 -1 -1</clus>
<clus scale="   60.457">  1  4  2 -1</clus>
<clus scale="  120.171">  2  3  1 -1</clus>
<clus scale="   60.457">  1  3  2 -1</clus>
</clustering>
</event>
<event>
 6    0  0.1555973E+002  0.9361070E+02  0.7546771E-02  0.1294336E+00
         21   -1    0    0  506  501  0.00000000000E+00  0.00000000000E+00  0.77424805146E+03  0.77424805146E+03  0.00000000000E+00 0. -1.
         21   -1    0    0  504  502 -0.00000000000E+00 -0.00000000000E+00 -0.26469076283E+03  0.26469076283E+03  0.00000000000E+00 0. -1.
         21    1    1    2  503  501  0.72625233097E+02 -0.33367383871E+02  0.80265801152E+02  0.11327138042E+03  0.00000000000E+00 0.  1.
         21    1    1    2  504  503 -0.53868528497E+02 -0.65582560656E+02 -0.23642223982E+03  0.25119388151E+03  0.00000000000E+00 0. -1.
         21    1    1    2  505  502 -0.21206218498E+01  0.60949084956E+02  0.28170997268E+03  0.28823566175E+03  0.00000000000E+00 0. -1.
         21    1    1    2  506  505 -0.16636082751E+02  0.38000859571E+02  0.38400375462E+03  0.38623789061E+03  0.00000000000E+00 0. -1.
<scales pt_clust_3="79.92376" pt_clust_4="84.65260" pt_clust_5="32.95779" pt_clust_6="32.95779"></scales>
<clustering>
<clus scale="   32.958">  5  6 -1 -1</clus>
<clus scale="   79.924">  1  3  2 -1</clus>
<clus scale="   84.653">  2  4  1 -1</clus>
<clus scale="   79.924">  1  3  2 -1</clus>
</clustering>
</event>
<event>
 6    0  0.1555973E+002  0.7866670E+02  0.7546771E-02  0.1332878E+00
         21   -1    0    0  503  501  0.00000000000E+00  0.00000000000E+00  0.20768503233E+02  0.20768503233E+02  0.00000000000E+00 0. -1.
         21   -1    0    0  506  502 -0.00000000000E+00 -0.00000000000E+00 -0.16141843705E+04  0.16141843705E+04  0.00000000000E+00 0. -1.
         21    1    1    2  503  504 -0.48644218527E+02 -0.27662931806E+02 -0.15711447574E+03  0.16678266180E+03  0.00000000000E+00 0. -1.
         21    1    1    2  504  505  0.11553385750E+03  0.94130852135E+01 -0.36977602718E+03  0.38751901718E+03  0.00000000000E+00 0. -1.
         21    1    1    2  505  502 -0.32023427463E+02 -0.16822677708E+02 -0.98240403429E+03  0.98306977829E+03  0.00000000000E+00 0. -1.
         21    1    1    2  506  501 -0.34866211510E+02  0.35072524301E+02 -0.84121330019E+02  0.97581416418E+02  0.00000000000E+00 0.  1.
<scales pt_clust_3="78.66670" pt_clust_4="14000.00000" pt_clust_5="36.17323" pt_clust_6="51.22823"></scales>
<clustering>
<clus scale="   36.173">  2  5  1 -1</clus>
<clus scale="   51.228">  1  6  2 -1</clus>
<clus scale="   78.667">  1  3  2 -1</clus>
<clus scale="   51.228">  1  3  2 -1</clus>
</clustering>
</event>
<event>
 6    0  0.1555973E+002  0.2330212E+03  0.7546771E-02  0.1124531E+00
         21   -1    0    0  503  501  0.00000000000E+00  0.00000000000E+00  0.24458179897E+04  0.24458179897E+04  0.00000000000E+00 0.  1.
         21   -1    0    0  504  502 -0.00000000000E+00 -0.00000000000E+00 -0.21631788185E+03  0.21631788185E+03  0.00000000000E+00 0.  1.
         21    1    1    2  503  502  0.24504194609E+02  0.11083515898E+03  0.33914316375E+03  0.35763525210E+03  0.00000000000E+00 0.  1.
         21    1    1    2  504  506  0.13234560580E+03  0.17418069842E+03 -0.13160258139E+03  0.25529103882E+03  0.00000000000E+00 0.  1.
         21    1    1    2  505  501 -0.14824366054E+03 -0.23634709667E+03  0.18217880921E+04  0.18430268543E+04  0.00000000000E+00 0.  1.
         21    1    1    2  506  505 -0.86061398665E+01 -0.48668760727E+02  0.20017143338E+03  0.20618272637E+03  0.00000000000E+00 0.  1.
<scales pt_clust_3="113.51162" pt_clust_4="221.79988" pt_clust_5="30.06870" pt_clust_6="30.06870"></scales>
<clustering>
<clus scale="   30.069">  5  6 -1 -1</clus>
<clus scale="  113.512">  1  3  2 -1</clus>
<clus scale="  221.800">  2  4  1 -1</clus>
<clus scale="  113.512">  1  3  2 -1</clus>
</clustering>
</event>
<event>
 6    0  0.1555973E+002  0.1122998E+03  0.7546771E-02  0.1256369E+00
         21   -1    0    0  506  501  0.00000000000E+00  0.00000000000E+00  0.16894294206E+03  0.16894294206E+03  0.00000000000E+00 0. -1.
         21   -1    0    0  505  502 -0.00000000000E+00 -0.00000000000E+00 -0.23733152465E+03  0.23733152465E+03  0.00000000000E+00 0.  1.
         21    1    1    2  503  504  0.68060562106E+02 -0.28256350331E+02  0.37251114051E+02  0.82573040069E+02  0.00000000000E+00 0. -1.
         21    1    1    2  504  501  0.24862490179E+02 -0.35558625986E+02  0.64030068263E+02  0.77346033781E+02  0.00000000000E+00 0. -1.
         21    1    1    2  505  503 -0.97020128623E+02  0.21920468324E+02 -0.17756616550E+03  0.20352679288E+03  0.00000000000E+00 0.  1.
         21    1    1    2  506  502  0.40970763382E+01  0.41894507993E+02  0.78964005963E+01  0.42828599987E+02  0.00000000000E+00 0. -1.
<scales pt_clust_3="39.19463" pt_clust_4="39.19463" pt_clust_5="100.01034" pt_clust_6="42.09437"></scales>
<clustering>
<clus scale="   39.195">  3  4 -1 -1</clus>
<clus scale="   42.094">  1  6  2 -1</clus>
<clus scale="  100.010">  2  5  1 -1</clus>
<clus scale="   42.094">  1  3  2 -1</clus>
</clustering>
</event>
<event>
 6    0  0.1555973E+002  0.1125136E+03  0.7546771E-02  0.1255985E+00
         21   -1    0    0  506  501  0.00000000000E+00  0.00000000000E+00  0.77575758257E+03  0.77575758257E+03  0.00000000000E+00 0. -1.
         21   -1    0    0  503  502 -0.00000000000E+00 -0.00000000000E+00 -0.42701171324E+03  0.42701171324E+03  0.00000000000E+00 0. -1.
         21    1    1    2  503  505  0.29251952953E+02 -0.75063604356E+02 -0.37726707598E+03  0.38577281924E+03  0.00000000000E+00 0. -1.
         21    1    1    2  504  501  0.10953288635E+03  0.91777169896E+01  0.56754904393E+03  0.57809480274E+03  0.00000000000E+00 0. -1.
         21    1    1    2  505  504 -0.13220490481E+03  0.30202227596E+02  0.94255016081E+02  0.16514938530E+03  0.00000000000E+00 0.  1.
         21    1    1    2  506  502 -0.65799344966E+01  0.35683659770E+02  0.64208885291E+02  0.73752288527E+02  0.00000000000E+00 0. -1.
<scales pt_clust_3="80.34748" pt_clust_4="112.51365" pt_clust_5="14000.00000" pt_clust_6="36.28525"></scales>
<clustering>
<clus scale="   36.285">  1  6  2 -1</clus>
<clus scale="   80.347">  2  3  1 -1</clus>
<clus scale="  112.514">  1  4  2 -1</clus>
<clus scale="   36.285">  1  3  2 -1</clus>
</clustering>
</event>
<event>
 6    0  0.1555973E+002  0.1177370E+03  0.7546771E-02  0.1246878E+00
         21   -1    0    0  505  501  0.00000000000E+00  0.00000000000E+00  0.52840564962E+03  0.52840564962E+03  0.00000000000E+00 0. -1.
         21   -1    0    0  504  502 -0.00000000000E+00 -0.00000000000E+00 -0.80560023890E+03  0.80560023890E+03  0.00000000000E+00 0. -1.
         21    1    1    2  503  502  0.35857530237E+02  0.72567814743E+02  0.28526290717E+00  0.80944002781E+02  0.00000000000E+00 0. -1.
         21    1    1    2  504  501 -0.98079124993E+01  0.74891216058E+02 -0.74764485661E+03  0.75145041154E+03  0.00000000000E+00 0. -1.
         21    1    1    2  505  506 -0.26301872801E+02 -0.28062903622E+02  0.23229998077E+03  0.23546251535E+03  0.00000000000E+00 0. -1.
         21    1    1    2  506  503  0.25225506246E+00 -0.11939612718E+03  0.23786502365E+03  0.26614895885E+03  0.00000000000E+00 0. -1.
<scales pt_clust_3="14000.00000" pt_clust_4="75.37326" pt_clust_5="38.46187" pt_clust_6="117.73704"></scales>
<clustering>
<clus scale="   38.462">  1  5  2 -1</clus>
<clus scale="   75.373">  2  4  1 -1</clus>
<clus scale="  117.737">  1  6  2 -1</clus>
<clus scale="   38.462">  1  3  2 -1</clus>
</clustering>
</event>
<event>
 6    0  0.1555973E+002  0.1411973E+03  0.7546771E-02  0.1211727E+00
         21   -1    0    0  503  501  0.00000000000E+00  0.00000000000E+00  0.60245074075E+03  0.60245074075E+03  0.00000000000E+00 0. -1.
         21   -1    0    0  504  502 -0.00000000000E+00 -0.00000000000E+00 -0.24517804321E+03  0.24517804321E+03  0.00000000000E+00 0. -1.
         21    1    1    2  503  506 -0.18565355207E+03  0.39935242024E+02  0.47759278231E+03  0.51396199341E+03  0.00000000000E+00 0. -1.
         21    1    1    2  504  505  0.89259664701E+02 -0.11093786557E+02  0.74146261214E+01  0.90251518122E+02  0.00000000000E+00 0.  1.
         21    1    1    2  505  501  0.32168377887E+02 -0.97251317445E+01  0.46136239889E+02  0.57078326486E+02  0.00000000000E+00 0.  1.
         21    1    1    2  506  502  0.64225509478E+02 -0.19116323723E+02 -0.17387095077E+03  0.18633694594E+03  0.00000000000E+00 0. -1.
<scales pt_clust_3="14000.00000" pt_clust_4="141.19726" pt_clust_5="33.60629" pt_clust_6="67.39034"></scales>
<clustering>
<clus scale="   33.606">  1  5  2 -1</clus>
<clus scale="   67.390">  2  6  1 -1</clus>
<clus scale="  141.197">  2  4  1 -1</clus>
<clus scale="   33.606">  1  3  2 -1</clus>
</clustering>
</event>
<event>
 6    0  0.1555973E+002  0.1338113E+03  0.7546771E-02  0.1221908E+00
         21   -1    0    0  505  501  0.00000000000E+00  0.00000000000E+00  0.72201848267E+02  0.72201848267E+02  0.00000000000E+00 0.  1.
         21   -1    0    0  506  502 -0.00000000000E+00 -0.00000000000E+00 -0.63241839008E+03  0.63241839008E+03  0.00000000000E+00 0.  1.
         21    1    1    2  503  501  0.25715499658E+02  0.14447516422E+03 -0.63886286959E+02  0.16004942255E+03  0.00000000000E+00 0.  1.
         21    1    1    2  504  502  0.98845847562E+00 -0.38996308934E+02 -0.28827759216E+03  0.29090489735E+03  0.00000000000E+00 0.  1.
         21    1    1    2  505  504  0.29497893233E+01 -0.11416065038E+03 -0.16565677694E+03  0.20120517662E+03  0.00000000000E+00 0.  1.
         21    1    1    2  506  503 -0.29653747457E+02  0.86817950931E+01 -0.42395885754E+02  0.52460741828E+02  0.00000000000E+00 0. -1.
<scales pt_clust_3="133.81135" pt_clust_4="37.30195" pt_clust_5="14000.00000" pt_clust_6="30.89852"></scales>
<clustering>
<clus scale="   30.899">  2  6  1 -1</clus>
<clus scale="   37.302">  2  4  1 -1</clus>
<clus scale="  133.811">  1  3  2 -1</clus>
<clus scale="  133.811">  1  3  2 -1</clus>
</clustering>
</event>
<event>
 6    0  0.1555973E+002  0.1341090E+03  0.7546771E-02  0.1221483E+00
         21   -1    0    0  503  501  0.00000000000E+00  0.00000000000E+00  0.10168599134E+04  0.10168599134E+04  0.00000000000E+00 0. -1.
         21   -1    0    0  504  502 -0.00000000000E+00 -0.00000000000E+00 -0.58858266783E+02  0.58858266783E+02  0.00000000000E+00 0.  1.
         21    1    1    2  503  505  0.10937585160E+03  0.11145773614E+03  0.53342412324E+03  0.55581219770E+03  0.00000000000E+00 0. -1.
         21    1    1    2  504  506  0.58619803850E+01 -0.65285840275E+02  0.25618936237E+03  0.26444204119E+03  0.00000000000E+00 0. -1.
         21    1    1    2  505  502 -0.10068406452E+03  0.96357021357E+01  0.29938554797E+02  0.10548196371E+03  0.00000000000E+00 0.  1.
         21    1    1    2  506  501 -0.14553767459E+02 -0.55807597999E+02  0.13844960622E+03  0.14998197760E+03  0.00000000000E+00 0. -1.
<scales pt_clust_3="129.29438" pt_clust_4="33.40413" pt_clust_5="101.14409" pt_clust_6="33.40413"></scales>
<clustering>
<clus scale="   33.404">  4  6 -1 -1</clus>
<clus scale="  101.144">  2  5  1 -1</clus>
<clus scale="  129.294">  2  3  1 -1</clus>
<clus scale="  134.109">  1  3  2 -1</clus>
</clustering>
</event>
<event>
 6    0  0.1555973E+002  0.3393252E+03  0.7546771E-02  0.1067084E+00
         21   -1    0    0  504  501  0.00000000000E+00  0.00000000000E+00  0.10651989917E+03  0.10651989917E+03  0.00000000000E+00 0. -1.
         21   -1    0    0  505  502 -0.00000000000E+00 -0.00000000000E+00 -0.10200038709E+04  0.10200038709E+04  0.00000000000E+00 0. -1.
         21    1    1    2  503  506  0.62492680409E+02 -0.24386144225E+02 -0.13275887593E+03  0.14874454031E+03  0.00000000000E+00 0. -1.
         21    1    1    2  504  503  0.18444207754E+03 -0.10911883500E+02 -0.21346951337E+03  0.28232460450E+03  0.00000000000E+00 0. -1.
         21    1    1    2  505  501 -0.30615428680E+03  0.92681937036E+02 -0.44972730626E+03  0.55188317494E+03  0.00000000000E+00 0. -1.
         21    1    1    2  506  502  0.59219528858E+02 -0.57383909311E+02 -0.11752827616E+03  0.14357145031E+03  0.00000000000E+00 0. -1.
<scales pt_clust_3="32.57966" pt_clust_4="88.63169" pt_clust_5="319.87558" pt_clust_6="88.63169"></scales>
<clustering>
<clus scale="   32.580">  3  6 -1 -1</clus>
<clus scale="   88.632">  3  4 -1 -1</clus>
<clus scale="  319.876">  2  5  1 -1</clus>
<clus scale="  339.325">  1  3  2 -1</clus>
</clustering>
</event>
<event>
 6    0  0.1844644E+002  0.7850447E+02  0.7546771E-02  0.1333350E+00
         21   -1    0    0  504  501  0.00000000000E+00  0.00000000000E+00  0.24072114114E+03  0.24072114114E+03  0.00000000000E+00 0. -1.
         21   -1    0    0  503  502 -0.00000000000E+00 -0.00000000000E+00 -0.12131912051E+04  0.12131912051E+04  0.00000000000E+00 0. -1.
         21    1    1    2  503  506  0.77179376706E+02  0.13853639053E+02 -0.11641902003E+04  0.11668279230E+04  0.00000000000E+00 0. -1.
         21    1    1    2  504  502 -0.25238219758E+02 -0.28850756292E+02  0.23491561680E+02  0.44957617211E+02  0.00000000000E+00 0. -1.
         21    1    1    2  505  501  0.41874723288E+02  0.99771250755E+01 -0.67002210350E+01  0.43565220499E+02  0.00000000000E+00 0. -1.
         21    1    1    2  506  505 -0.93815880235E+02  0.50199921639E+01  0.17492879565E+03  0.19856158554E+03  0.00000000000E+00 0. -1.
<scales pt_clust_3="78.50447" pt_clust_4="38.33189" pt_clust_5="40.30733" pt_clust_6="14000.00000"></scales>
<clustering>
<clus scale="   38.332">  1  4  2 -1</clus>
<clus scale="   40.307">  1  5  2 -1</clus>
<clus scale="   78.504">  2  3  1 -1</clus>
<clus scale="   38.332">  1  3  2 -1</clus>
</clustering>
</event>
<event>
 6    0  0.1555973E+002  0.3052669E+03  0.7546771E-02  0.1082637E+00
         21   -1    0    0  503  501  0.00000000000E+00  0.00000000000E+00  0.15167669831E+04  0.15167669831E+04  0.00000000000E+00 0. -1.
         21   -1    0    0  504  502 -0.00000000000E+00 -0.00000000000E+00 -0.10968198662E+03  0.10968198662E+03  0.00000000000E+00 0. -1.
         21    1    1    2  503  506 -0.20316943503E+02  0.64261016012E+02  0.16929203158E+03  0.18221429233E+03  0.00000000000E+00 0. -1.
         21    1    1    2  504  505  0.13447019026E+03  0.14881696779E+03  0.88271718113E+02  0.21913607232E+03  0.00000000000E+00 0. -1.
         21    1    1    2  505  501  0.66063477823E+02  0.51372751013E+02  0.11511252003E+03  0.14231807656E+03  0.00000000000E+00 0. -1.
         21    1    1    2  506  502 -0.18021672458E+03 -0.26445073482E+03  0.10344087268E+04  0.10827805286E+04  0.00000000000E+00 0. -1.
<scales pt_clust_3="67.39626" pt_clust_4="61.26022" pt_clust_5="61.26022" pt_clust_6="290.16129"></scales>
<clustering>
<clus scale="   61.260">  4  5 -1 -1</clus>
<clus scale="   67.396">  1  3  2 -1</clus>
<clus scale="  290.161">  1  6  2 -1</clus>
<clus scale="   67.396">  1  3  2 -1</clus>
</clustering>
</event>
<event>
 6    0  0.1555973E+002  0.2430099E+03  0.7546771E-02  0.1117804E+00
         21   -1    0    0  505  501  0.00000000000E+00  0.00000000000E+00  0.38864771654E+03  0.38864771654E+03  0.00000000000E+00 0. -1.
         21   -1    0    0  504  502 -0.00000000000E+00 -0.00000000000E+00 -0.94000778815E+03  0.94000778815E+03  0.00000000000E+00 0. -1.
         21    1    1    2  503  501 -0.24751215746E+03 -0.60736436239E+02  0.43958225792E+02  0.25861846104E+03  0.00000000000E+00 0. -1.
         21    1    1    2  504  503  0.23392580726E+02  0.86926926321E+02 -0.77051726464E+03  0.77575792517E+03  0.00000000000E+00 0. -1.
         21    1    1    2  505  506  0.19005273938E+03 -0.11109515216E+02  0.17253620546E+03  0.25692840884E+03  0.00000000000E+00 0. -1.
         21    1    1    2  506  502  0.34066837356E+02 -0.15080974866E+02  0.26627617798E+01  0.37350709641E+02  0.00000000000E+00 0. -1.
<scales pt_clust_3="232.51624" pt_clust_4="90.01946" pt_clust_5="31.24920" pt_clust_6="31.24920"></scales>
<clustering>
<clus scale="   31.249">  5  6 -1 -1</clus>
<clus scale="   90.019">  2  4  1 -1</clus>
<clus scale="  232.516">  2  3  1 -1</clus>
<clus scale="  243.010">  1  3  2 -1</clus>
</clustering>
</event>
<event>
 6    0  0.1555973E+002  0.2672373E+03  0.7546771E-02  0.1102871E+00
         21   -1    0    0  502  501  0.00000000000E+00  0.00000000000E+00  0.79390984628E+03  0.79390984628E+03  0.00000000000E+00 0.  1.
         21   -1    0    0  503  502 -0.00000000000E+00 -0.00000000000E+00 -0.96473440723E+03  0.96473440723E+03  0.00000000000E+00 0.  1.
         21    1    1    2  503  506 -0.26351297233E+03  0.52282554843E+02 -0.88491455130E+03  0.92479528288E+03  0.00000000000E+00 0.  1.
         21    1    1    2  504  501 -0.22486543999E+02 -0.43855327654E+02  0.85589321672E+01  0.50021892652E+02  0.00000000000E+00 0.  1.
         21    1    1    2  505  504  0.62604622600E+02 -0.15068471644E+02  0.27693309848E+02  0.70095057022E+02  0.00000000000E+00 0.  1.
         21    1    1    2  506  505  0.22339489373E+03  0.66412444544E+01  0.67783774834E+03  0.71373202096E+03  0.00000000000E+00 0.  1.
<scales pt_clust_3="267.23731" pt_clust_4="49.28422" pt_clust_5="63.72444" pt_clust_6="14000.00000"></scales>
<clustering>
<clus scale="   49.284">  1  4  2 -1</clus>
<clus scale="   63.724">  1  5  2 -1</clus>
<clus scale="  267.237">  2  3  1 -1</clus>
<clus scale="   49.284">  1  3  2 -1</clus>
</clustering>
</event>
<event>
 6    0  0.1555973E+002  0.1062592E+03  0.7546771E-02  0.1267658E+00
         21   -1    0    0  505  501  0.00000000000E+00  0.00000000000E+00  0.16138236913E+04  0.16138236913E+04  0.00000000000E+00 0. -1.
         21   -1    0    0  503  502 -0.00000000000E+00 -0.00000000000E+00 -0.10755922436E+03  0.10755922436E+03  0.00000000000E+00 0. -1.
         21    1    1    2  503  506 -0.15102496505E+02 -0.63922753702E+02 -0.66549963661E+02  0.93504553391E+02  0.00000000000E+00 0. -1.
         21    1    1    2  504  502 -0.52150673372E+02  0.16954074111E+03  0.38524642503E+03  0.42412093043E+03  0.00000000000E+00 0. -1.
         21    1    1    2  505  504  0.23502638446E+02 -0.55413238898E+02  0.10413604778E+04  0.10430985792E+04  0.00000000000E+00 0. -1.
         21    1    1    2  506  501  0.43750531431E+02 -0.50204748515E+02  0.14620752773E+03  0.16065885267E+03  0.00000000000E+00 0. -1.
<scales pt_clust_3="66.83201" pt_clust_4="106.25917" pt_clust_5="60.19137" pt_clust_6="14000.00000"></scales>
<clustering>
<clus scale="   60.191">  1  5  2 -1</clus>
<clus scale="   66.832">  2  3  1 -1</clus>
<clus scale="  106.259">  1  4  2 -1</clus>
<clus scale="   60.191">  1  3  2 -1</clus>
</clustering>
</event>
<event>
 6    0  0.1555973E+002  0.6868578E+02  0.7546771E-02  0.1364620E+00
         21   -1    0    0  503  501  0.00000000000E+00  0.00000000000E+00  0.45409533566E+02  0.45409533566E+02  0.00000000000E+00 0.  1.
         21   -1    0    0  505  502 -0.00000000000E+00 -0.00000000000E+00 -0.17564520004E+04  0.17564520004E+04  0.00000000000E+00 0.  1.
         21    1    1    2  503  504 -0.15273585272E+02 -0.63701775562E+02 -0.77776010513E+02  0.10168729728E+03  0.00000000000E+00 0.  1.
         21    1    1    2  504  502  0.31413111195E+02  0.63220520816E+02 -0.12161502131E+04  0.12181974218E+04  0.00000000000E+00 0.  1.
         21    1    1    2  505  506  0.53268823610E+00 -0.68840434496E+02 -0.40357423991E+03  0.40940378149E+03  0.00000000000E+00 0.  1.
         21    1    1    2  506  501 -0.16672214159E+02  0.69321689242E+02 -0.13542003400E+02  0.72573033424E+02  0.00000000000E+00 0.  1.
<scales pt_clust_3="65.50724" pt_clust_4="14000.00000" pt_clust_5="68.68578" pt_clust_6="32.87854"></scales>
<clustering>
<clus scale="   65.507">  1  3  2 -1</clus>
<clus scale="   32.879">  1  6  2 -1</clus>
<clus scale="   68.686">  1  5  2 -1</clus>
<clus scale="   65.507">  1  3  2 -1</clus>
</clustering>
</event>
<event>
 6    0  0.1555973E+002  0.1477069E+03  0.7546771E-02  0.1203319E+00
         21   -1    0    0  504  501  0.00000000000E+00  0.00000000000E+00  0.29917880777E+03  0.29917880777E+03  0.00000000000E+00 0. -1.
         21   -1    0    0  506  502 -0.00000000000E+00 -0.00000000000E+00 -0.10308671109E+04  0.10308671109E+04  0.00000000000E+00 0.  1.
         21    1    1    2  503  505 -0.29620409578E+02  0.88627711041E+02  0.90960221651E+02  0.13040706174E+03  0.00000000000E+00 0. -1.
         21    1    1    2  504  503  0.86763298819E+02 -0.20063999852E+02  0.11646062934E+03  0.14660665844E+03  0.00000000000E+00 0. -1.
         21    1    1    2  505  502  0.89509857306E+01  0.57764731933E+02  0.35274600599E+02  0.68272848543E+02  0.00000000000E+00 0. -1.
         21    1    1    2  506  501 -0.66093874972E+02 -0.12632844312E+03 -0.97438375469E+03  0.98475934992E+03  0.00000000000E+00 0.  1.
<scales pt_clust_3="32.42246" pt_clust_4="89.05298" pt_clust_5="32.42246" pt_clust_6="141.90430"></scales>
<clustering>
<clus scale="   32.422">  3  5 -1 -1</clus>
<clus scale="   89.053">  1  4  2 -1</clus>
<clus scale="  141.904">  2  6  1 -1</clus>
<clus scale="   89.053">  1  3  2 -1</clus>
</clustering>
</event>
<event>
 6    0  0.1555973E+002  0.3729072E+03  0.7546771E-02  0.1053587E+00
         21   -1    0    0  505  501  0.00000000000E+00  0.00000000000E+00  0.81653030454E+03  0.81653030454E+03  0.00000000000E+00 0. -1.
         21   -1    0    0  506  502 -0.00000000000E+00 -0.00000000000E+00 -0.43811691047E+03  0.43811691047E+03  0.00000000000E+00 0. -1.
         21    1    1    2  503  502 -0.13163424123E+03  0.12956699168E+03  0.41120798713E+03  0.45078507903E+03  0.00000000000E+00 0. -1.
         21    1    1    2  504  503 -0.70296171895E+02  0.70710237349E+02  0.11649220239E+03  0.15333597969E+03  0.00000000000E+00 0. -1.
         21    1    1    2  505  504 -0.14765816333E+03 -0.44346897545E+02  0.10894279577E+03  0.18878059558E+03  0.00000000000E+00 0. -1.
         21    1    1    2  506  501  0.34958857645E+03 -0.15593033148E+03 -0.25822959122E+03  0.46174556071E+03  0.00000000000E+00 0. -1.
<scales pt_clust_3="55.02071" pt_clust_4="55.02071" pt_clust_5="154.17386" pt_clust_6="365.31069"></scales>
<clustering>
<clus scale="   55.021">  3  4 -1 -1</clus>
<clus scale="  154.174">  1  5  2 -1</clus>
<clus scale="  365.311">  2  6  1 -1</clus>
<clus scale="  154.174">  1  3  2 -1</clus>
</clustering>
</event>
<event>
 6    0  0.1555973E+002  0.1420837E+03  0.7546771E-02  0.1210552E+00
         21   -1    0    0  505  501  0.00000000000E+00  0.00000000000E+00  0.31949046402E+03  0.31949046402E+03  0.00000000000E+00 0. -1.
         21   -1    0    0  503  502 -0.00000000000E+00 -0.00000000000E+00 -0.11514824713E+04  0.11514824713E+04  0.00000000000E+00 0.  1.
         21    1    1    2  503  504  0.11689632189E+03 -0.88562526100E+02 -0.10155038441E+04  0.10260390482E+04  0.00000000000E+00 0.  1.
         21    1    1    2  504  501 -0.32850072979E+02  0.95718494788E+02  0.27163761397E+02  0.10478085451E+03  0.00000000000E+00 0. -1.
         21    1    1    2  505  506  0.81356362247E+02  0.59257529251E+02 -0.35375772396E+01  0.10071160263E+03  0.00000000000E+00 0. -1.
         21    1    1    2  506  502 -0.16540261116E+03 -0.66413497939E+02  0.15988565262E+03  0.23944143000E+03  0.00000000000E+00 0. -1.
<scales pt_clust_3="14000.00000" pt_clust_4="142.08372" pt_clust_5="100.64945" pt_clust_6="107.86471"></scales>
<clustering>
<clus scale="  100.649">  1  5  2 -1</clus>
<clus scale="  107.865">  1  6  2 -1</clus>
<clus scale="  142.084">  1  4  2 -1</clus>
<clus scale="  100.649">  1  3  2 -1</clus>
</clustering>
</event>
<event>
 6    0  0.1555973E+002  0.1208861E+03  0.7546771E-02  0.1241642E+00
         21   -1    0    0  503  501  0.00000000000E+00  0.00000000000E+00  0.67483517778E+03  0.67483517778E+03  0.00000000000E+00 0.  1.
         21   -1    0    0  506  502 -0.00000000000E+00 -0.00000000000E+00 -0.28698724364E+03  0.28698724364E+03  0.00000000000E+00 0. -1.
         21    1    1    2  503  505  0.11124247933E+03  0.88806340047E+02  0.56999448010E+03  0.58749907454E+03  0.00000000000E+00 0.  1.
         21    1    1    2  504  501  0.97272466469E+00 -0.49841774484E+02  0.51014776299E+02  0.71327807185E+02  0.00000000000E+00 0.  1.
         21    1    1    2  505  502  0.72859510268E+01  0.35037975507E+02 -0.66251358336E+01  0.36395566142E+02  0.00000000000E+00 0.  1.
         21    1    1    2  506  504 -0.11950115502E+03 -0.74002541070E+02 -0.22653618643E+03  0.26659997355E+03  0.00000000000E+00 0. -1.
<scales pt_clust_3="120.88606" pt_clust_4="48.51745" pt_clust_5="35.78750" pt_clust_6="14000.00000"></scales>
<clustering>
<clus scale="   35.787">  2  5  1 -1</clus>
<clus scale="   48.517">  1  4  2 -1</clus>
<clus scale="  120.886">  1  3  2 -1</clus>
<clus scale="   48.517">  1  3  2 -1</clus>
</clustering>
</event>
<event>
 6    0  0.1555973E+002  0.1782899E+03  0.7546771E-02  0.1169468E+00
         21   -1    0    0  505  501  0.00000000000E+00  0.00000000000E+00  0.96467684468E+03  0.96467684468E+03  0.00000000000E+00 0.  1.
         21   -1    0    0  504  502 -0.00000000000E+00 -0.00000000000E+00 -0.66025505766E+02  0.66025505766E+02  0.00000000000E+00 0. -1.
         21    1    1    2  503  501 -0.72043313237E+01  0.12162650488E+03  0.40370731466E+03  0.42169242937E+03  0.00000000000E+00 0.  1.
         21    1    1    2  504  506  0.25328368007E+02 -0.16390368028E+03  0.86433484882E+02  0.18702056021E+03  0.00000000000E+00 0. -1.
         21    1    1    2  505  502  0.26794925553E+02 -0.16178519911E+02  0.14640993554E+03  0.14971834145E+03  0.00000000000E+00 0. -1.
         21    1    1    2  506  503 -0.44918962236E+02  0.58455695307E+02  0.26210060384E+03  0.27227101942E+03  0.00000000000E+00 0.  1.
<scales pt_clust_3="42.14071" pt_clust_4="169.25908" pt_clust_5="31.30036" pt_clust_6="42.14071"></scales>
<clustering>
<clus scale="   31.300">  1  5  2 -1</clus>
<clus scale="   42.141">  3  6 -1 -1</clus>
<clus scale="  169.259">  2  4  1 -1</clus>
<clus scale="   31.300">  1  3  2 -1</clus>
</clustering>
</event>
<event>
 6    0  0.2026733E+002  0.9876153E+02  0.7546771E-02  0.1282922E+00
         21   -1    0    0  506  501  0.00000000000E+00  0.00000000000E+00  0.31510513509E+03  0.31510513509E+03  0.00000000000E+00 0. -1.
         21   -1    0    0  503  502 -0.00000000000E+00 -0.00000000000E+00 -0.22534503760E+03  0.22534503760E+03  0.00000000000E+00 0. -1.
         21    1    1    2  503  501  0.90413648744E+02 -0.57365993253E+02  0.24813594915E+03  0.27025346311E+03  0.00000000000E+00 0. -1.
         21    1    1    2  504  505 -0.66132666289E+02  0.42838266910E+02 -0.11089849673E+02  0.79571549112E+02  0.00000000000E+00 0. -1.
         21    1    1    2  505  502 -0.39584618832E+02 -0.12494076624E+02 -0.15344968381E+03  0.15896493154E+03  0.00000000000E+00 0. -1.
         21    1    1    2  506  504  0.15303636377E+02  0.27021802967E+02  0.61636818220E+01  0.31660228924E+02  0.00000000000E+00 0. -1.
<scales pt_clust_3="14000.00000" pt_clust_4="98.76153" pt_clust_5="41.29844" pt_clust_6="31.05445"></scales>
<clustering>
<clus scale="   31.054">  1  6  2 -1</clus>
<clus scale="   41.298">  2  5  1 -1</clus>
<clus scale="   98.762">  2  4  1 -1</clus>
<clus scale="   31.054">  1  3  2 -1</clus>
</clustering>
</event>
<event>
 6    0  0.1555973E+002  0.8102828E+02  0.7546771E-02  0.1326158E+00
         21   -1    0    0  505  501  0.00000000000E+00  0.00000000000E+00  0.20919177087E+04  0.20919177087E+04  0.00000000000E+00 0. -1.
         21   -1    0    0  503  502 -0.00000000000E+00 -0.00000000000E+00 -0.31509323789E+02  0.31509323789E+02  0.00000000000E+00 0. -1.
         21    1    1    2  503  506 -0.48457659218E+02 -0.44395947969E+02  0.30375307214E+02  0.72400305395E+02  0.00000000000E+00 0. -1.
         21    1    1    2  504  501 -0.27152582164E+02  0.34585794500E+02  0.11802331327E+04  0.11810519411E+04  0.00000000000E+00 0. -1.
         21    1    1    2  505  502  0.11925200772E+03 -0.22297352572E+02  0.43322424664E+03  0.44989049907E+03  0.00000000000E+00 0. -1.
         21    1    1    2  506  504 -0.43641766336E+02  0.32107506041E+02  0.41657569828E+03  0.42008428692E+03  0.00000000000E+00 0. -1.
<scales pt_clust_3="65.57830" pt_clust_4="43.97090" pt_clust_5="81.02828" pt_clust_6="14000.00000"></scales>
<clustering>
<clus scale="   43.971">  1  4  2 -1</clus>
<clus scale="   65.578">  2  3  1 -1</clus>
<clus scale="   81.028">  2  5  1 -1</clus>
<clus scale="   43.971">  1  3  2 -1</clus>
</clustering>
</event>
<event>
 6    0  0.1555973E+002  0.9652889E+02  0.7546771E-02  0.1287769E+00
         21   -1    0    0  506  501  0.00000000000E+00  0.00000000000E+00  0.65382595235E+03  0.65382595235E+03  0.00000000000E+00 0.  1.
         21   -1    0    0  505  502 -0.00000000000E+00 -0.00000000000E+00 -0.16943998025E+04  0.16943998025E+04  0.00000000000E+00 0.  1.
         21    1    1    2  503  501  0.86899297517E+02 -0.23781378664E+01  0.42733032648E+03  0.43608296387E+03  0.00000000000E+00 0.  1.
         21    1    1    2  504  502 -0.15750869988E+02  0.33261124292E+02  0.36102691676E+02  0.51553822757E+02  0.00000000000E+00 0.  1.
         21    1    1    2  505  503 -0.17469213491E+02 -0.74615751035E+02 -0.16746663094E+04  0.16764187817E+04  0.00000000000E+00 0.  1.
         21    1    1    2  506  504 -0.53679214039E+02  0.43732764609E+02  0.17065944117E+03  0.18417018646E+03  0.00000000000E+00 0.  1.
<scales pt_clust_3="85.15393" pt_clust_4="33.14309" pt_clust_5="76.63344" pt_clust_6="33.14309"></scales>
<clustering>
<clus scale="   33.143">  4  6 -1 -1</clus>
<clus scale="   76.633">  2  5  1 -1</clus>
<clus scale="   85.154">  1  3  2 -1</clus>
<clus scale="   85.154">  1  3  2 -1</clus>
</clustering>
</event>
<event>
 6    0  0.1555973E+002  0.1680095E+03  0.7546771E-02  0.1179940E+00
         21   -1    0    0  502  501  0.00000000000E+00  0.00000000000E+00  0.57095156904E+03  0.57095156904E+03  0.00000000000E+00 0.  1.
         21   -1    0    0  506  502 -0.00000000000E+00 -0.00000000000E+00 -0.18152605300E+03  0.18152605300E+03  0.00000000000E+00 0.  1.
         21    1    1    2  503  504  0.29675407488E+02 -0.77830421812E+02  0.20519267877E+03  0.22145482562E+03  0.00000000000E+00 0.  1.
         21    1    1    2  504  501 -0.22685791070E+02 -0.75928258548E+02  0.31075604593E+03  0.32070089748E+03  0.00000000000E+00 0.  1.
         21    1    1    2  505  503 -0.31786084733E+00  0.93992654720E+02 -0.33962471353E+02  0.99940830682E+02  0.00000000000E+00 0.  1.
         21    1    1    2  506  505 -0.66717555704E+01  0.59766025640E+02 -0.92560737300E+02  0.11038106827E+03  0.00000000000E+00 0.  1.
<scales pt_clust_3="166.52250" pt_clust_4="61.98962" pt_clust_5="53.87515" pt_clust_6="53.87515"></scales>
<clustering>
<clus scale="   53.875">  5  6 -1 -1</clus>
<clus scale="   61.990">  3  4 -1 -1</clus>
<clus scale="  166.522">  1  3  2 -1</clus>
<clus scale="  166.522">  1  3  2 -1</clus>
</clustering>
</event>
<event>
 6    0  0.1555973E+002  0.2980430E+03  0.7546771E-02  0.1086223E+00
         21   -1    0    0  503  501  0.00000000000E+00  0.00000000000E+00  0.43303424258E+03  0.43303424258E+03  0.00000000000E+00 0.  1.
         21   -1    0    0  504  502 -0.00000000000E+00 -0.00000000000E+00 -0.13379654199E+04  0.13379654199E+04  0.00000000000E+00 0.  1.
         21    1    1    2  503  502  0.48014915647E+02  0.12256458699E+02 -0.75297422362E+03  0.75460309723E+03  0.00000000000E+00 0.  1.
         21    1    1    2  504  505  0.24756212076E+03 -0.53720198493E+02 -0.49683388567E+03  0.55768877819E+03  0.00000000000E+00 0.  1.
         21    1    1    2  505  506 -0.10064378752E+03  0.20078062501E+02  0.85715876033E+02  0.13371429230E+03  0.00000000000E+00 0. -1.
         21    1    1    2  506  501 -0.19493324889E+03  0.21385677292E+02  0.25916105595E+03  0.32499349476E+03  0.00000000000E+00 0.  1.
<scales pt_clust_3="49.55454" pt_clust_4="294.01009" pt_clust_5="35.34920" pt_clust_6="35.34920"></scales>
<clustering>
<clus scale="   35.349">  5  6 -1 -1</clus>
<clus scale="   49.555">  2  3  1 -1</clus>
<clus scale="  294.010">  2  4  1 -1</clus>
<clus scale="  298.043">  1  3  2 -1</clus>
</clustering>
</event>
<event>
 6    0  0.1555973E+002  0.1450092E+03  0.7546771E-02  0.1206743E+00
         21   -1    0    0  503  501  0.00000000000E+00  0.00000000000E+00  0.17823453693E+03  0.17823453693E+03  0.00000000000E+00 0. -1.
         21   -1    0    0  501  502 -0.00000000000E+00 -0.00000000000E+00 -0.13898412546E+04  0.13898412546E+04  0.00000000000E+00 0.  1.
         21    1    1    2  503  505  0.20792196143E+02  0.35467949708E+02 -0.24861290663E+02  0.48045547664E+02  0.00000000000E+00 0.  1.
         21    1    1    2  504  502 -0.27830592055E+02  0.36023941949E+02 -0.11482586433E+04  0.11491606407E+04  0.00000000000E+00 0.  1.
         21    1    1    2  505  506 -0.78242858524E+01  0.10897774825E+03  0.95895356947E+02  0.14537292921E+03  0.00000000000E+00 0. -1.
         21    1    1    2  506  504  0.14862681764E+02 -0.18046963990E+03 -0.13438214066E+03  0.22549667395E+03  0.00000000000E+00 0.  1.
<scales pt_clust_3="41.11315" pt_clust_4="45.56383" pt_clust_5="14000.00000" pt_clust_6="145.00922"></scales>
<clustering>
<clus scale="   41.113">  1  3  2 -1</clus>
<clus scale="   45.564">  2  4  1 -1</clus>
<clus scale="  145.009">  2  6  1 -1</clus>
<clus scale="   41.113">  1  3  2 -1</clus>
</clustering>
</event>
<event>
 6    0  0.1555973E+002  0.1592810E+03  0.7546771E-02  0.1189511E+00
         21   -1    0    0  505  501  0.00000000000E+00  0.00000000000E+00  0.14126146225E+03  0.14126146225E+03  0.00000000000E+00 0. -1.
         21   -1    0    0  506  502 -0.00000000000E+00 -0.00000000000E+00 -0.15206938738E+04  0.15206938738E+04  0.00000000000E+00 0.  1.
         21    1    1    2  503  504  0.32134357068E+02 -0.22552244768E+02  0.15957940254E+02  0.42377783158E+02  0.00000000000E+00 0. -1.
         21    1    1    2  504  502 -0.23456413421E+02  0.30452619499E+02 -0.12515656990E+04  0.12521558466E+04  0.00000000000E+00 0.  1.
         21    1    1    2  505  503  0.12202161029E+03  0.24268210738E+02  0.47774627696E+02  0.13326903047E+03  0.00000000000E+00 0. -1.
         21    1    1    2  506  501 -0.13069955394E+03 -0.32168585470E+02 -0.19159928052E+03  0.23415267581E+03  0.00000000000E+00 0.  1.
<scales pt_clust_3="30.88530" pt_clust_4="38.43911" pt_clust_5="30.88530" pt_clust_6="149.49071"></scales>
<clustering>
<clus scale="   30.885">  3  5 -1 -1</clus>
<clus scale="   38.439">  2  4  1 -1</clus>
<clus scale="  149.491">  2  6  1 -1</clus>
<clus scale="  159.281">  1  3  2 -1</clus>
</clustering>
</event>
<event>
 6    0  0.1555973E+002  0.2172931E+03  0.7546771E-02  0.1135917E+00
         21   -1    0    0  506  501  0.00000000000E+00  0.00000000000E+00  0.18696829843E+04  0.18696829843E+04  0.00000000000E+00 0. -1.
         21   -1    0    0  505  502 -0.00000000000E+00 -0.00000000000E+00 -0.53618429909E+03  0.53618429909E+03  0.00000000000E+00 0. -1.
         21    1    1    2  503  504  0.10299224176E+03  0.89175012324E+02  0.35050570529E+02  0.14067027824E+03  0.00000000000E+00 0. -1.
         21    1    1    2  504  502  0.88887863413E+02  0.41426994185E+02 -0.73886156977E+00  0.98070352430E+02  0.00000000000E+00 0. -1.
         21    1    1    2  505  501 -0.55063885693E+02  0.31404405965E+02 -0.42512506863E+03  0.42982507162E+03  0.00000000000E+00 0. -1.
         21    1    1    2  506  503 -0.13681621948E+03 -0.16200641247E+03  0.17243120448E+04  0.17373015811E+04  0.00000000000E+00 0. -1.
<scales pt_clust_3="37.41738" pt_clust_4="37.41738" pt_clust_5="63.38981" pt_clust_6="212.77067"></scales>
<clustering>
<clus scale="   37.417">  3  4 -1 -1</clus>
<clus scale="   63.390">  2  5  1 -1</clus>
<clus scale="  212.771">  1  6  2 -1</clus>
<clus scale="  212.771">  1  3  2 -1</clus>
</clustering>
</event>
<event>
 6    0  0.1555973E+002  0.1121810E+03  0.7546771E-02  0.1256583E+00
         21   -1    0    0  506  501  0.00000000000E+00  0.00000000000E+00  0.43545442461E+02  0.43545442461E+02  0.00000000000E+00 0.  1.
         21   -1    0    0  504  502 -0.00000000000E+00 -0.00000000000E+00 -0.27524816027E+04  0.27524816027E+04  0.00000000000E+00 0.  1.
         21    1    1    2  503  501 -0.57836538398E+01  0.11514341901E+03 -0.68136699810E+02  0.13391813714E+03  0.00000000000E+00 0.  1.
         21    1    1    2  504  505  0.34980511720E+01 -0.51501960283E+02 -0.18877465045E+04  0.18884521581E+04  0.00000000000E+00 0.  1.
         21    1    1    2  505  503  0.47488836242E+02  0.29933992269E+02 -0.12449520621E+03  0.13656606398E+03  0.00000000000E+00 0.  1.
         21    1    1    2  506  502 -0.45203233575E+02 -0.93575450999E+02 -0.62855774970E+03  0.63709068590E+03  0.00000000000E+00 0. -1.
<scales pt_clust_3="112.18102" pt_clust_4="51.62062" pt_clust_5="52.88249" pt_clust_6="14000.00000"></scales>
<clustering>
<clus scale="   51.621">  2  4  1 -1</clus>
<clus scale="   52.882">  2  5  1 -1</clus>
<clus scale="  112.181">  1  3  2 -1</clus>
<clus scale="  112.181">  1  3  2 -1</clus>
</clustering>
</event>
<event>
 6    0  0.1555973E+002  0.1627797E+03  0.7546771E-02  0.1185594E+00
         21   -1    0    0  504  501  0.00000000000E+00  0.00000000000E+00  0.12602061679E+03  0.12602061679E+03  0.00000000000E+00 0. -1.
         21   -1    0    0  505  502 -0.00000000000E+00 -0.00000000000E+00 -0.14878318715E+04  0.14878318715E+04  0.00000000000E+00 0.  1.
         21    1    1    2  503  502  0.15717719347E+03  0.27381713571E+02 -0.11901840501E+04  0.12008299220E+04  0.00000000000E+00 0.  1.
         21    1    1    2  504  503 -0.20112215485E+03 -0.93210191845E+01 -0.10488761754E+03  0.22702073668E+03  0.00000000000E+00 0. -1.
         21    1    1    2  505  506  0.67517483079E+02  0.57133980576E+02 -0.60069707357E+02  0.10691712678E+03  0.00000000000E+00 0. -1.
         21    1    1    2  506  501 -0.23572521704E+02 -0.75194674962E+02 -0.66698796590E+01  0.79084702799E+02  0.00000000000E+00 0.  1.
<scales pt_clust_3="162.77971" pt_clust_4="14000.00000" pt_clust_5="71.93191" pt_clust_6="78.80294"></scales>
<clustering>
<clus scale="   78.803">  1  6  2 -1</clus>
<clus scale="   71.932">  1  5  2 -1</clus>
<clus scale="  162.780">  2  3  1 -1</clus>
<clus scale="   78.803">  1  3  2 -1</clus>
</clustering>
</event>
<event>
 6    0  0.1555973E+002  0.2554845E+03  0.7546771E-02  0.1109887E+00
         21   -1    0    0  504  501  0.00000000000E+00  0.00000000000E+00  0.37321208272E+03  0.37321208272E+03  0.00000000000E+00 0. -1.
         21   -1    0    0  506  502 -0.00000000000E+00 -0.00000000000E+00 -0.50315638730E+03  0.50315638730E+03  0.00000000000E+00 0. -1.
         21    1    1    2  503  501 -0.10181173502E+03 -0.20043437581E+03  0.11850065906E+03  0.25412983806E+03  0.00000000000E+00 0. -1.
         21    1    1    2  504  505  0.73979389779E+02  0.20089842793E+03  0.87449023640E+02  0.23125842729E+03  0.00000000000E+00 0. -1.
         21    1    1    2  505  502  0.49799714584E+02  0.21488132915E+02 -0.59002887797E+00  0.54241124277E+02  0.00000000000E+00 0. -1.
         21    1    1    2  506  503 -0.21967369347E+02 -0.21952185036E+02 -0.33530395840E+03  0.33673908039E+03  0.00000000000E+00 0. -1.
<scales pt_clust_3="236.82028" pt_clust_4="47.46548" pt_clust_5="47.46548" pt_clust_6="31.05582"></scales>
<clustering>
<clus scale="   31.056">  2  6  1 -1</clus>
<clus scale="   47.465">  4  5 -1 -1</clus>
<clus scale="  236.820">  1  3  2 -1</clus>
<clus scale="  236.820">  1  3  2 -1</clus>
</clustering>
</event>
<event>
 6    0  0.1555973E+002  0.1302805E+03  0.7546771E-02  0.1227040E+00
         21   -1    0    0  504  501  0.00000000000E+00  0.00000000000E+00  0.67735439593E+03  0.67735439593E+03  0.00000000000E+00 0. -1.
         21   -1    0    0  505  502 -0.00000000000E+00 -0.00000000000E+00 -0.15504563138E+03  0.15504563138E+03  0.00000000000E+00 0. -1.
         21    1    1    2  503  502 -0.97220414352E+02 -0.85207555433E+02 -0.95090521404E+02  0.16048159935E+03  0.00000000000E+00 0. -1.
         21    1    1    2  504  506  0.52745712710E+02  0.48567417168E+02  0.17882742845E+03  0.19266591132E+03  0.00000000000E+00 0.  1.
         21    1    1    2  505  501 -0.34307404341E+02  0.33354626488E+02  0.17636875749E+02  0.50995965399E+02  0.00000000000E+00 0. -1.
         21    1    1    2  506  503  0.78782105984E+02  0.32855117765E+01  0.42093498176E+03  0.42825655124E+03  0.00000000000E+00 0. -1.
<scales pt_clust_3="14000.00000" pt_clust_4="71.60772" pt_clust_5="47.84902" pt_clust_6="130.28055"></scales>
<clustering>
<clus scale="   47.849">  2  5  1 -1</clus>
<clus scale="   71.608">  1  4  2 -1</clus>
<clus scale="  130.281">  1  6  2 -1</clus>
<clus scale="   71.608">  1  3  2 -1</clus>
</clustering>
</event>
<event>
 6    0  0.1555973E+002  0.1856835E+03  0.7546771E-02  0.1162413E+00
         21   -1    0    0  504  501  0.00000000000E+00  0.00000000000E+00  0.42062759934E+03  0.42062759934E+03  0.00000000000E+00 0. -1.
         21   -1    0    0  503  502 -0.00000000000E+00 -0.00000000000E+00 -0.53073738571E+03  0.53073738571E+03  0.00000000000E+00 0. -1.
         21    1    1    2  503  505  0.13163201257E+03 -0.10941899703E+03 -0.43581399350E+03  0.46822360104E+03  0.00000000000E+00 0. -1.
         21    1    1    2  504  502 -0.98818350314E+02 -0.82564597047E+02  0.51524979800E+02  0.13869680093E+03  0.00000000000E+00 0. -1.
         21    1    1    2  505  506  0.20438503395E+01  0.15551770676E+03  0.18233311129E+03  0.23965662501E+03  0.00000000000E+00 0. -1.
         21    1    1    2  506  501 -0.34857512593E+02  0.36465887310E+02  0.91846116047E+02  0.10478795806E+03  0.00000000000E+00 0.  1.
<scales pt_clust_3="170.13224" pt_clust_4="128.77103" pt_clust_5="42.36435" pt_clust_6="42.36435"></scales>
<clustering>
<clus scale="   42.364">  5  6 -1 -1</clus>
<clus scale="  128.771">  1  4  2 -1</clus>
<clus scale="  170.132">  2  3  1 -1</clus>
<clus scale="  128.771">  1  3  2 -1</clus>
</clustering>
</event>
<event>
 6    0  0.1555973E+002  0.2848115E+03  0.7546771E-02  0.1093090E+00
         21   -1    0    0  502  501  0.00000000000E+00  0.00000000000E+00  0.21135414279E+04  0.21135414279E+04  0.00000000000E+00 0.  1.
         21   -1    0    0  504  502 -0.00000000000E+00 -0.00000000000E+00 -0.43336766244E+02  0.43336766244E+02  0.00000000000E+00 0.  1.
         21    1    1    2  503  505 -0.67170741173E+02 -0.13904316743E+03  0.10034382066E+04  0.10152502870E+04  0.00000000000E+00 0.  1.
         21    1    1    2  504  506  0.63591793903E+02  0.16963964069E+03  0.31678815455E+03  0.36493322514E+03  0.00000000000E+00 0.  1.
         21    1    1    2  505  501 -0.73062933093E+02 -0.81441720891E+02  0.43638733340E+03  0.44989426629E+03  0.00000000000E+00 0. -1.
         21    1    1    2  506  503  0.76641880363E+02  0.50845247634E+02  0.31359096715E+03  0.32680041571E+03  0.00000000000E+00 0.  1.
<scales pt_clust_3="271.20283" pt_clust_4="80.73287" pt_clust_5="61.11771" pt_clust_6="80.73287"></scales>
<clustering>
<clus scale="   61.118">  3  5 -1 -1</clus>
<clus scale="   80.733">  4  6 -1 -1</clus>
<clus scale="  271.203">  1  3  2 -1</clus>
<clus scale="  271.203">  1  3  2 -1</clus>
</clustering>
</event>
<event>
 6    0  0.1555973E+002  0.1185564E+03  0.7546771E-02  0.1245498E+00
         21   -1    0    0  503  501  0.00000000000E+00  0.00000000000E+00  0.42890779775E+03  0.42890779775E+03  0.00000000000E+00 0.  1.
         21   -1    0    0  504  502 -0.00000000000E+00 -0.00000000000E+00 -0.18909349494E+04  0.18909349494E+04  0.00000000000E+00 0.  1.
         21    1    1    2  503  505 -0.36460922458E+01  0.48699181714E+02  0.14852579034E+03  0.15634837602E+03  0.00000000000E+00 0.  1.
         21    1    1    2  504  506 -0.13611111668E+02  0.29660910240E+02 -0.18018142209E+04  0.18021097410E+04  0.00000000000E+00 0.  1.
         21    1    1    2  505  502  0.37985526636E+02  0.55631751503E+02  0.21360054566E+03  0.22397094703E+03  0.00000000000E+00 0.  1.
         21    1    1    2  506  501 -0.20728322722E+02 -0.13399184346E+03 -0.22339266802E+02  0.13741368315E+03  0.00000000000E+00 0.  1.
<scales pt_clust_3="32.34554" pt_clust_4="32.63483" pt_clust_5="32.34554" pt_clust_6="112.30524"></scales>
<clustering>
<clus scale="   32.346">  3  5 -1 -1</clus>
<clus scale="   32.635">  2  4  1 -1</clus>
<clus scale="  112.305">  2  6  1 -1</clus>
<clus scale="  118.556">  1  3  2 -1</clus>
</clustering>
</event>
<event>
 6    0  0.1555973E+002  0.7591464E+02  0.7546771E-02  0.1341062E+00
         21   -1    0    0  503  501  0.00000000000E+00  0.00000000000E+00  0.18022751630E+04  0.18022751630E+04  0.00000000000E+00 0. -1.
         21   -1    0    0  506  502 -0.00000000000E+00 -0.00000000000E+00 -0.12206419878E+03  0.12206419878E+03  0.00000000000E+00 0. -1.
         21    1    1    2  503  505  0.68550852501E+02  0.76756239130E+01  0.68260409032E+03  0.68608051911E+03  0.00000000000E+00 0. -1.
         21    1    1    2  504  501 -0.77887515425E+02 -0.49486124862E+02  0.75704167546E+03  0.76264502882E+03  0.00000000000E+00 0. -1.
         21    1    1    2  505  502  0.40299415289E+02 -0.11247937328E+02 -0.11105107209E+03  0.11867139327E+03  0.00000000000E+00 0. -1.
         21    1    1    2  506  504 -0.30962752365E+02  0.53058438276E+02  0.35161627054E+03  0.35694242059E+03  0.00000000000E+00 0. -1.
<scales pt_clust_3="14000.00000" pt_clust_4="75.91464" pt_clust_5="41.83968" pt_clust_6="51.47063"></scales>
<clustering>
<clus scale="   41.840">  2  5  1 -1</clus>
<clus scale="   51.471">  2  6  1 -1</clus>
<clus scale="   75.915">  2  4  1 -1</clus>
<clus scale="   75.915">  1  3  2 -1</clus>
</clustering>
</event>
<event>
 6    0  0.1555973E+002  0.1607035E+03  0.7546771E-02  0.1187905E+00
         21   -1    0    0  504  501  0.00000000000E+00  0.00000000000E+00  0.10524722263E+03  0.10524722263E+03  0.00000000000E+00 0.  1.
         21   -1    0    0  506  502 -0.00000000000E+00 -0.00000000000E+00 -0.40567787659E+03  0.40567787659E+03  0.00000000000E+00 0.  1.
         21    1    1    2  503  505 -0.19430763536E+02 -0.56456226987E+02 -0.51305835939E+02  0.78721972400E+02  0.00000000000E+00 0.  1.
         21    1    1    2  504  502  0.91024417649E+02  0.14681822333E+03 -0.10310765017E+03  0.20117709322E+03  0.00000000000E+00 0.  1.
         21    1    1    2  505  501 -0.36396221145E+02 -0.66765695021E+02  0.30001424667E+01  0.76100879102E+02  0.00000000000E+00 0.  1.
         21    1    1    2  506  503 -0.35197432968E+02 -0.23596301322E+02 -0.14901731031E+03  0.15492515450E+03  0.00000000000E+00 0.  1.
<scales pt_clust_3="53.02086" pt_clust_4="149.96411" pt_clust_5="53.02086" pt_clust_6="42.37505"></scales>
<clustering>
<clus scale="   42.375">  2  6  1 -1</clus>
<clus scale="   53.021">  3  5 -1 -1</clus>
<clus scale="  149.964">  2  4  1 -1</clus>
<clus scale="  160.703">  1  3  2 -1</clus>
</clustering>
</event>
<event>
 6    0  0.1555973E+002  0.1745453E+03  0.7546771E-02  0.1173189E+00
         21   -1    0    0  503  501  0.00000000000E+00  0.00000000000E+00  0.41022588464E+03  0.41022588464E+03  0.00000000000E+00 0. -1.
         21   -1    0    0  506  502 -0.00000000000E+00 -0.00000000000E+00 -0.94243969834E+03  0.94243969834E+03  0.00000000000E+00 0.  1.
         21    1    1    2  503  505 -0.15506217795E+03  0.44543711402E+02  0.35338833662E+03  0.38847359977E+03  0.00000000000E+00 0. -1.
         21    1    1    2  504  502  0.68818791175E+02 -0.89512661958E+01 -0.10262215789E+03  0.12388485975E+03  0.00000000000E+00 0.  1.
         21    1    1    2  505  504  0.64322514116E+02 -0.87321772551E+01 -0.89796509461E+01  0.65530686499E+02  0.00000000000E+00 0. -1.
         21    1    1    2  506  501  0.21920872661E+02 -0.26860267951E+02 -0.77400034149E+03  0.77477643696E+03  0.00000000000E+00 0.  1.
<scales pt_clust_3="158.37321" pt_clust_4="65.83215" pt_clust_5="65.83215" pt_clust_6="34.66985"></scales>
<clustering>
<clus scale="   34.670">  2  6  1 -1</clus>
<clus scale="   65.832">  4  5 -1 -1</clus>
<clus scale="  158.373">  1  3  2 -1</clus>
<clus scale="  158.373">  1  3  2 -1</clus>
</clustering>
</event>
<event>
 6    0  0.1555973E+002  0.1506039E+03  0.7546771E-02  0.1199733E+00
         21   -1    0    0  506  501  0.00000000000E+00  0.00000000000E+00  0.51782580977E+03  0.51782580977E+03  0.00000000000E+00 0.  1.
         21   -1    0    0  504  502 -0.00000000000E+00 -0.00000000000E+00 -0.65800999219E+02  0.65800999219E+02  0.00000000000E+00 0. -1.
         21    1    1    2  503  505 -0.46923187767E+02 -0.45840233225E+02  0.90126030710E+02  0.11147113503E+03  0.00000000000E+00 0. -1.
         21    1    1    2  504  503  0.48204069649E+02 -0.13768354279E+02  0.11871505379E+02  0.51518273945E+02  0.00000000000E+00 0.  1.
         21    1    1    2  505  501 -0.13618995698E+02 -0.83215062075E+02  0.17608743960E+03  0.19523578049E+03  0.00000000000E+00 0. -1.
         21    1    1    2  506  502  0.12338113816E+02  0.14282364958E+03  0.17393983486E+03  0.22540161952E+03  0.00000000000E+00 0.  1.
<scales pt_clust_3="47.32469" pt_clust_4="50.13183" pt_clust_5="47.32469" pt_clust_6="140.72183"></scales>
<clustering>
<clus scale="   47.325">  3  5 -1 -1</clus>
<clus scale="   50.132">  2  4  1 -1</clus>
<clus scale="  140.722">  2  6  1 -1</clus>
<clus scale="  150.604">  1  3  2 -1</clus>
</clustering>
</event>
<event>
 6    0  0.1555973E+002  0.1118838E+03  0.7546771E-02  0.1257121E+00
         21   -1    0    0  503  501  0.00000000000E+00  0.00000000000E+00  0.52792203153E+03  0.52792203153E+03  0.00000000000E+00 0. -1.
         21   -1    0    0  506  502 -0.00000000000E+00 -0.00000000000E+00 -0.15674064750E+03  0.15674064750E+03  0.00000000000E+00 0. -1.
         21    1    1    2  503  505 -0.11992395518E+02  0.41557280829E+02  0.15794769526E+03  0.16376293713E+03  0.00000000000E+00 0. -1.
         21    1    1    2  504  501  0.42874176256E+02 -0.33091058463E+02  0.19290603264E+03  0.20036454419E+03  0.00000000000E+00 0. -1.
         21    1    1    2  505  502 -0.10151942870E+03  0.13667585315E+02 -0.12248782253E+03  0.15967549580E+03  0.00000000000E+00 0. -1.
         21    1    1    2  506  504  0.70637647962E+02 -0.22133807682E+02  0.14281547867E+03  0.16085970191E+03  0.00000000000E+00 0. -1.
<scales pt_clust_3="43.25304" pt_clust_4="36.68391" pt_clust_5="103.33771" pt_clust_6="36.68391"></scales>
<clustering>
<clus scale="   36.684">  4  6 -1 -1</clus>
<clus scale="   43.253">  1  3  2 -1</clus>
<clus scale="  103.338">  2  5  1 -1</clus>
<clus scale="   43.253">  1  3  2 -1</clus>
</clustering>
</event>
<event>
 6    0  0.1555973E+002  0.1277722E+03  0.7546771E-02  0.1230799E+00
         21   -1    0    0  503  501  0.00000000000E+00  0.00000000000E+00  0.29738591193E+02  0.29738591193E+02  0.00000000000E+00 0. -1.
         21   -1    0    0  506  502 -0.00000000000E+00 -0.00000000000E+00 -0.21713915988E+04  0.21713915988E+04  0.00000000000E+00 0.  1.
         21    1    1    2  503  505  0.59899976169E+02  0.21856303503E+02 -0.59797765677E+02  0.87415547404E+02  0.00000000000E+00 0. -1.
         21    1    1    2  504  501 -0.52432683770E+02  0.33556510789E+02 -0.14270232436E+03  0.15568936740E+03  0.00000000000E+00 0. -1.
         21    1    1    2  505  502  0.24674399185E+02  0.54815277808E+02 -0.11067916314E+03  0.12595006077E+03  0.00000000000E+00 0. -1.
         21    1    1    2  506  504 -0.32141691584E+02 -0.11022809210E+03 -0.18284737544E+04  0.18320752144E+04  0.00000000000E+00 0.  1.
<scales pt_clust_3="56.87464" pt_clust_4="62.25131" pt_clust_5="56.87464" pt_clust_6="113.55440"></scales>
<clustering>
<clus scale="   56.875">  3  5 -1 -1</clus>
<clus scale="   62.251">  1  4  2 -1</clus>
<clus scale="  113.554">  2  6  1 -1</clus>
<clus scale="   62.251">  1  3  2 -1</clus>
</clustering>
</event>
<event>
 6    0  0.1555973E+002  0.2589403E+03  0.7546771E-02  0.1107782E+00
         21   -1    0    0  505  501  0.00000000000E+00  0.00000000000E+00  0.21713440542E+03  0.21713440542E+03  0.00000000000E+00 0.  1.
         21   -1    0    0  506  502 -0.00000000000E+00 -0.00000000000E+00 -0.10558376145E+04  0.10558376145E+04  0.00000000000E+00 0.  1.
         21    1    1    2  503  502 -0.12992104366E+03  0.22065038752E+03 -0.79491778700E+03  0.83514092176E+03  0.00000000000E+00 0.  1.
         21    1    1    2  504  501 -0.49703549632E+02 -0.12610262023E+02  0.72883311012E+01  0.51793641738E+02  0.00000000000E+00 0. -1.
         21    1    1    2  505  503  0.11086162930E+03 -0.25899122559E+03  0.83545765767E+01  0.28184491256E+03  0.00000000000E+00 0.  1.
         21    1    1    2  506  504  0.68762963993E+02  0.50951100093E+02 -0.59428329719E+02  0.10419254384E+03  0.00000000000E+00 0. -1.
<scales pt_clust_3="14000.00000" pt_clust_4="51.27828" pt_clust_5="258.94026" pt_clust_6="79.95571"></scales>
<clustering>
<clus scale="   51.278">  1  4  2 -1</clus>
<clus scale="   79.956">  1  6  2 -1</clus>
<clus scale="  258.940">  1  5  2 -1</clus>
<clus scale="   51.278">  1  3  2 -1</clus>
</clustering>
</event>
<event>
 6    0  0.1555973E+002  0.1532359E+03  0.7546771E-02  0.1196552E+00
         21   -1    0    0  506  501  0.00000000000E+00  0.00000000000E+00  0.67218230263E+03  0.67218230263E+03  0.00000000000E+00 0. -1.
         21   -1    0    0  505  502 -0.00000000000E+00 -0.00000000000E+00 -0.58231030171E+03  0.58231030171E+03  0.00000000000E+00 0. -1.
         21    1    1    2  503  501 -0.32124095417E+02 -0.15105579611E+03  0.59353703586E+03  0.61329929397E+03  0.00000000000E+00 0. -1.
         21    1    1    2  504  502  0.55168115779E+02  0.34687855206E+02 -0.43730945975E+03  0.44213836283E+03  0.00000000000E+00 0. -1.
         21    1    1    2  505  503 -0.37145959392E+02 -0.23580641727E+02 -0.11369133021E+01  0.44013197285E+02  0.00000000000E+00 0.  1.
         21    1    1    2  506  504  0.14101939030E+02  0.13994858263E+03 -0.65218661893E+02  0.15504175026E+03  0.00000000000E+00 0.  1.
<scales pt_clust_3="14000.00000" pt_clust_4="30.60301" pt_clust_5="43.99851" pt_clust_6="153.23586"></scales>
<clustering>
<clus scale="   43.999">  2  5  1 -1</clus>
<clus scale="   30.603">  2  4  1 -1</clus>
<clus scale="  153.236">  2  6  1 -1</clus>
<clus scale="  153.236">  1  3  2 -1</clus>
</clustering>
</event>
<event>
 6    0  0.1555973E+002  0.1050574E+03  0.7546771E-02  0.1270006E+00
         21   -1    0    0  503  501  0.00000000000E+00  0.00000000000E+00  0.40496976119E+02  0.40496976119E+02  0.00000000000E+00 0. -1.
         21   -1    0    0  505  502 -0.00000000000E+00 -0.00000000000E+00 -0.13277477312E+04  0.13277477312E+04  0.00000000000E+00 0.  1.
         21    1    1    2  503  502  0.95081409220E+02 -0.19620000300E+02 -0.47858311643E+02  0.10823971907E+03  0.00000000000E+00 0. -1.
         21    1    1    2  504  506 -0.66259384896E+02  0.36485781317E+02 -0.10569317614E+04  0.10596349685E+04  0.00000000000E+00 0.  1.
         21    1    1    2  505  504 -0.28219373790E+02  0.25715276137E+02 -0.10855661889E+03  0.11507453232E+03  0.00000000000E+00 0.  1.
         21    1    1    2  506  501 -0.60265053357E+00 -0.42581057155E+02 -0.73904063118E+02  0.85295487345E+02  0.00000000000E+00 0. -1.
<scales pt_clust_3="105.05745" pt_clust_4="14000.00000" pt_clust_5="38.17864" pt_clust_6="40.97095"></scales>
<clustering>
<clus scale="   38.179">  2  5  1 -1</clus>
<clus scale="   40.971">  1  6  2 -1</clus>
<clus scale="  105.057">  1  3  2 -1</clus>
<clus scale="   40.971">  1  3  2 -1</clus>
</clustering>
</event>
<event>
 6    0  0.1555973E+002  0.1127799E+03  0.7546771E-02  0.1255507E+00
         21   -1    0    0  505  501  0.00000000000E+00  0.00000000000E+00  0.15342403478E+04  0.15342403478E+04  0.00000000000E+00 0.  1.
         21   -1    0    0  503  502 -0.00000000000E+00 -0.00000000000E+00 -0.16647867916E+02  0.16647867916E+02  0.00000000000E+00 0.  1.
         21    1    1    2  503  506 -0.74338696332E+02  0.14352209664E+02  0.14997308472E+03  0.16800045784E+03  0.00000000000E+00 0.  1.
         21    1    1    2  504  501  0.93003476161E+02  0.49143080219E+02  0.90267941684E+03  0.90878755410E+03  0.00000000000E+00 0.  1.
         21    1    1    2  505  502  0.12216341471E+02 -0.42490676545E+02  0.36015308696E+03  0.36285664199E+03  0.00000000000E+00 0. -1.
         21    1    1    2  506  504 -0.30881121300E+02 -0.21004613337E+02  0.10478689133E+03  0.11124356175E+03  0.00000000000E+00 0.  1.
<scales pt_clust_3="31.08707" pt_clust_4="103.73135" pt_clust_5="44.21195" pt_clust_6="31.08707"></scales>
<clustering>
<clus scale="   31.087">  3  6 -1 -1</clus>
<clus scale="   44.212">  1  5  2 -1</clus>
<clus scale="  103.731">  1  4  2 -1</clus>
<clus scale="   44.212">  1  3  2 -1</clus>
</clustering>
</event>
<event>
 6    0  0.1555973E+002  0.2303251E+03  0.7546771E-02  0.1126411E+00
         21   -1    0    0  505  501  0.00000000000E+00  0.00000000000E+00  0.60276146441E+03  0.60276146441E+03  0.00000000000E+00 0.  1.
         21   -1    0    0  504  502 -0.00000000000E+00 -0.00000000000E+00 -0.11048703779E+03  0.11048703779E+03  0.00000000000E+00 0.  1.
         21    1    1    2  503  502 -0.61255145370E+02  0.61016319428E+02  0.33831197292E+02  0.92842522483E+02  0.00000000000E+00 0.  1.
         21    1    1    2  504  501  0.18833445590E+03 -0.14936105136E+03  0.30146099525E+03  0.38556104912E+03  0.00000000000E+00 0.  1.
         21    1    1    2  505  506 -0.38180962080E+02 -0.11339158802E+02  0.48613783138E+02  0.62846338785E+02  0.00000000000E+00 0.  1.
         21    1    1    2  506  503 -0.88898348447E+02  0.99683890733E+02  0.10836845094E+03  0.17199859182E+03  0.00000000000E+00 0.  1.
<scales pt_clust_3="31.66987" pt_clust_4="226.93655" pt_clust_5="39.82917" pt_clust_6="31.66987"></scales>
<clustering>
<clus scale="   31.670">  3  6 -1 -1</clus>
<clus scale="   39.829">  1  5  2 -1</clus>
<clus scale="  226.937">  1  4  2 -1</clus>
<clus scale="   39.829">  1  3  2 -1</clus>
</clustering>
</event>
<event>
 6    0  0.1555973E+002  0.1887692E+03  0.7546771E-02  0.1159576E+00
         21   -1    0    0  505  501  0.00000000000E+00  0.00000000000E+00  0.88524305607E+03  0.88524305607E+03  0.00000000000E+00 0.  1.
         21   -1    0    0  504  502 -0.00000000000E+00 -0.00000000000E+00 -0.13413517997E+03  0.13413517997E+03  0.00000000000E+00 0.  1.
         21    1    1    2  503  502  0.14414824026E+03  0.12132813990E+03 -0.22405162794E+02  0.18973988517E+03  0.00000000000E+00 0.  1.
         21    1    1    2  504  506 -0.19074311636E+02 -0.95777310642E+02  0.23930156168E+03  0.25846152522E+03  0.00000000000E+00 0.  1.
         21    1    1    2  505  503 -0.85885648619E+02  0.59267143731E+02  0.22232626365E+03  0.24559704085E+03  0.00000000000E+00 0.  1.
         21    1    1    2  506  501 -0.39188280008E+02 -0.84817972991E+02  0.31188521356E+03  0.32557978480E+03  0.00000000000E+00 0. -1.
<scales pt_clust_3="185.32564" pt_clust_4="35.10664" pt_clust_5="104.35008" pt_clust_6="35.10664"></scales>
<clustering>
<clus scale="   35.107">  4  6 -1 -1</clus>
<clus scale="  104.350">  1  5  2 -1</clus>
<clus scale="  185.326">  2  3  1 -1</clus>
<clus scale="  104.350">  1  3  2 -1</clus>
</clustering>
</event>
<event>
 6    0  0.1555973E+002  0.6793019E+02  0.7546771E-02  0.1367276E+00
         21   -1    0    0  503  501  0.00000000000E+00  0.00000000000E+00  0.65585008762E+02  0.65585008762E+02  0.00000000000E+00 0.  1.
         21   -1    0    0  506  502 -0.00000000000E+00 -0.00000000000E+00 -0.33912474552E+03  0.33912474552E+03  0.00000000000E+00 0.  1.
         21    1    1    2  503  504  0.95075619844E+02 -0.20809354022E+02 -0.23006017947E+02  0.10000839747E+03  0.00000000000E+00 0.  1.
         21    1    1    2  504  502 -0.35858237418E+02 -0.53553763069E+02 -0.95888278176E+02  0.11553519213E+03  0.00000000000E+00 0.  1.
         21    1    1    2  505  501 -0.30871705869E+02  0.13364002362E+02 -0.21300329610E+02  0.39816614922E+02  0.00000000000E+00 0.  1.
         21    1    1    2  506  505 -0.28345676557E+02  0.60999114730E+02 -0.13334511103E+03  0.14934954976E+03  0.00000000000E+00 0.  1.
<scales pt_clust_3="14000.00000" pt_clust_4="65.76267" pt_clust_5="33.64014" pt_clust_6="67.93019"></scales>
<clustering>
<clus scale="   33.640">  1  5  2 -1</clus>
<clus scale="   65.763">  2  4  1 -1</clus>
<clus scale="   67.930">  2  6  1 -1</clus>
<clus scale="   33.640">  1  3  2 -1</clus>
</clustering>
</event>
<event>
 6    0  0.1555973E+002  0.1371134E+03  0.7546771E-02  0.1217267E+00
         21   -1    0    0  506  501  0.00000000000E+00  0.00000000000E+00  0.14321733010E+04  0.14321733010E+04  0.00000000000E+00 0.  1.
         21   -1    0    0  503  502 -0.00000000000E+00 -0.00000000000E+00 -0.27459975932E+03  0.27459975932E+03  0.00000000000E+00 0. -1.
         21    1    1    2  503  505  0.10587708052E+03  0.43270613049E+02 -0.23718698796E+03  0.26332483626E+03  0.00000000000E+00 0. -1.
         21    1    1    2  504  501  0.17663580929E+01 -0.12705196989E+03  0.61608163809E+03  0.62904841456E+03  0.00000000000E+00 0.  1.
         21    1    1    2  505  504 -0.14364663686E+03  0.10953477630E+03  0.71055031184E+03  0.73315344175E+03  0.00000000000E+00 0.  1.
         21    1    1    2  506  502  0.36003198248E+02 -0.25753419452E+02  0.68128579737E+02  0.81246367762E+02  0.00000000000E+00 0. -1.
<scales pt_clust_3="114.60551" pt_clust_4="14000.00000" pt_clust_5="137.11340" pt_clust_6="44.26589"></scales>
<clustering>
<clus scale="   44.266">  1  6  2 -1</clus>
<clus scale="  114.606">  2  3  1 -1</clus>
<clus scale="  137.113">  2  5  1 -1</clus>
<clus scale="   44.266">  1  3  2 -1</clus>
</clustering>
</event>
<event>
 6    0  0.1555973E+002  0.1556886E+03  0.7546771E-02  0.1193652E+00
         21   -1    0    0  502  501  0.00000000000E+00  0.00000000000E+00  0.13607594326E+03  0.13607594326E+03  0.00000000000E+00 0. -1.
         21   -1    0    0  505  502 -0.00000000000E+00 -0.00000000000E+00 -0.64284663743E+03  0.64284663743E+03  0.00000000000E+00 0. -1.
         21    1    1    2  503  501 -0.11101480325E+03 -0.10426207853E+03  0.69267426869E+02  0.16731062126E+03  0.00000000000E+00 0. -1.
         21    1    1    2  504  503  0.77185248007E+02  0.22311003540E+02 -0.12435264782E+03  0.14805041172E+03  0.00000000000E+00 0. -1.
         21    1    1    2  505  506  0.73169572219E+01  0.41650783980E+02 -0.32942896835E+03  0.33213215872E+03  0.00000000000E+00 0. -1.
         21    1    1    2  506  504  0.26512598021E+02  0.40300291009E+02 -0.12225650487E+03  0.13142938900E+03  0.00000000000E+00 0. -1.
<scales pt_clust_3="147.03558" pt_clust_4="39.65767" pt_clust_5="42.28860" pt_clust_6="39.65767"></scales>
<clustering>
<clus scale="   39.658">  4  6 -1 -1</clus>
<clus scale="   42.289">  2  5  1 -1</clus>
<clus scale="  147.036">  1  3  2 -1</clus>
<clus scale="  147.036">  1  3  2 -1</clus>
</clustering>
</event>
<event>
 6    0  0.1555973E+002  0.1199604E+03  0.7546771E-02  0.1243162E+00
         21   -1    0    0  504  501  0.00000000000E+00  0.00000000000E+00  0.30571694365E+03  0.30571694365E+03  0.00000000000E+00 0.  1.
         21   -1    0    0  506  502 -0.00000000000E+00 -0.00000000000E+00 -0.13234508258E+04  0.13234508258E+04  0.00000000000E+00 0. -1.
         21    1    1    2  503  501  0.24209843865E+02 -0.23909668143E+02  0.18684325146E+01  0.34077555821E+02  0.00000000000E+00 0.  1.
         21    1    1    2  504  505 -0.87198315958E+01 -0.12341933077E+03  0.17038476635E+03  0.21056907483E+03  0.00000000000E+00 0.  1.
         21    1    1    2  505  502  0.20095814160E+00  0.10906973123E+03  0.66243243803E+02  0.12761039928E+03  0.00000000000E+00 0.  1.
         21    1    1    2  506  503 -0.15690970411E+02  0.38259267680E+02 -0.12562303248E+04  0.12569107395E+04  0.00000000000E+00 0. -1.
<scales pt_clust_3="34.02630" pt_clust_4="14000.00000" pt_clust_5="119.96036" pt_clust_6="41.31487"></scales>
<clustering>
<clus scale="   34.026">  1  3  2 -1</clus>
<clus scale="   41.315">  2  6  1 -1</clus>
<clus scale="  119.960">  2  5  1 -1</clus>
<clus scale="   34.026">  1  3  2 -1</clus>
</clustering>
</event>
<event>
 6    0  0.1555973E+002  0.1735842E+03  0.7546771E-02  0.1174161E+00
         21   -1    0    0  504  501  0.00000000000E+00  0.00000000000E+00  0.76531870189E+03  0.76531870189E+03  0.00000000000E+00 0. -1.
         21   -1    0    0  506  502 -0.00000000000E+00 -0.00000000000E+00 -0.10894440379E+03  0.10894440379E+03  0.00000000000E+00 0.  1.
         21    1    1    2  503  501 -0.15055454993E+03 -0.15262539192E+02  0.10263640057E+03  0.18284925028E+03  0.00000000000E+00 0.  1.
         21    1    1    2  504  505  0.63465260496E+02  0.81979234587E+02  0.27942239962E+03  0.29803575558E+03  0.00000000000E+00 0. -1.
         21    1    1    2  505  502  0.74245719355E+02  0.32391624470E+02  0.28175155490E+03  0.29316477085E+03  0.00000000000E+00 0. -1.
         21    1    1    2  506  503  0.12843570075E+02 -0.99108319865E+02 -0.74360570035E+01  0.10021332897E+03  0.00000000000E+00 0.  1.
<scales pt_clust_3="166.05615" pt_clust_4="44.69607" pt_clust_5="44.69607" pt_clust_6="99.93706"></scales>
<clustering>
<clus scale="   44.696">  4  5 -1 -1</clus>
<clus scale="   99.937">  2  6  1 -1</clus>
<clus scale="  166.056">  2  3  1 -1</clus>
<clus scale="  173.584">  1  3  2 -1</clus>
</clustering>
</event>
<event>
 6    0  0.1555973E+002  0.1985117E+03  0.7546771E-02  0.1151001E+00
         21   -1    0    0  504  501  0.00000000000E+00  0.00000000000E+00  0.92568527026E+03  0.92568527026E+03  0.00000000000E+00 0. -1.
         21   -1    0    0  503  502 -0.00000000000E+00 -0.00000000000E+00 -0.85795234012E+03  0.85795234012E+03  0.00000000000E+00 0.  1.
         21    1    1    2  503  506 -0.67034434504E+02  0.10623335035E+03 -0.76315284295E+03  0.77342187830E+03  0.00000000000E+00 0.  1.
         21    1    1    2  504  502  0.16130590204E+03 -0.25388766521E+03  0.70876435250E+03  0.76995158805E+03  0.00000000000E+00 0. -1.
         21    1    1    2  505  501  0.13303944682E+02  0.74776310297E+02  0.33674712358E+02  0.83081151763E+02  0.00000000000E+00 0.  1.
         21    1    1    2  506  505 -0.10757541221E+03  0.72878004561E+02  0.88446708232E+02  0.15718299227E+03  0.00000000000E+00 0.  1.
<scales pt_clust_3="125.94776" pt_clust_4="198.51170" pt_clust_5="75.95059" pt_clust_6="14000.00000"></scales>
<clustering>
<clus scale="   75.951">  1  5  2 -1</clus>
<clus scale="  125.948">  2  3  1 -1</clus>
<clus scale="  198.512">  1  4  2 -1</clus>
<clus scale="   75.951">  1  3  2 -1</clus>
</clustering>
</event>
<event>
 6    0  0.1555973E+002  0.8489418E+02  0.7546771E-02  0.1315709E+00
         21   -1    0    0  504  501  0.00000000000E+00  0.00000000000E+00  0.69270330238E+03  0.69270330238E+03  0.00000000000E+00 0.  1.
         21   -1    0    0  505  502 -0.00000000000E+00 -0.00000000000E+00 -0.25179144810E+04  0.25179144810E+04  0.00000000000E+00 0.  1.
         21    1    1    2  503  502 -0.32941631126E+02  0.53933179605E+02  0.94796450113E+02  0.11393114534E+03  0.00000000000E+00 0.  1.
         21    1    1    2  504  503  0.68300726972E+02 -0.11156203454E+03  0.55802651772E+03  0.57315327037E+03  0.00000000000E+00 0.  1.
         21    1    1    2  505  506 -0.30472736155E+02  0.21965436273E+02 -0.24863132023E+04  0.24865969533E+04  0.00000000000E+00 0.  1.
         21    1    1    2  506  501 -0.48863596919E+01  0.35663418658E+02  0.82790558710E+01  0.36936414383E+02  0.00000000000E+00 0.  1.
<scales pt_clust_3="14000.00000" pt_clust_4="84.89418" pt_clust_5="37.56944" pt_clust_6="35.99661"></scales>
<clustering>
<clus scale="   35.997">  1  6  2 -1</clus>
<clus scale="   37.569">  2  5  1 -1</clus>
<clus scale="   84.894">  1  4  2 -1</clus>
<clus scale="   35.997">  1  3  2 -1</clus>
</clustering>
</event>
<event>
 6    0  0.1555973E+002  0.1913842E+03  0.7546771E-02  0.1157219E+00
         21   -1    0    0  503  501  0.00000000000E+00  0.00000000000E+00  0.12001014661E+04  0.12001014661E+04  0.00000000000E+00 0. -1.
         21   -1    0    0  506  502 -0.00000000000E+00 -0.00000000000E+00 -0.32957357293E+03  0.32957357293E+03  0.00000000000E+00 0.  1.
         21    1    1    2  503  504  0.48584325966E+02  0.45908613998E+02  0.26746389443E+02  0.71995881250E+02  0.00000000000E+00 0. -1.
         21    1    1    2  504  505  0.19727446466E+02  0.56384902313E+02  0.46061978877E+02  0.75432985165E+02  0.00000000000E+00 0. -1.
         21    1    1    2  505  502  0.45622321044E+02  0.67864667704E+02 -0.27667684788E+03  0.28850838368E+03  0.00000000000E+00 0.  1.
         21    1    1    2  506  501 -0.11393409348E+03 -0.17015818402E+03  0.10743963728E+04  0.10937377890E+04  0.00000000000E+00 0. -1.
<scales pt_clust_3="34.13401" pt_clust_4="34.13401" pt_clust_5="81.77414" pt_clust_6="187.94723"></scales>
<clustering>
<clus scale="   34.134">  3  4 -1 -1</clus>
<clus scale="   81.774">  2  5  1 -1</clus>
<clus scale="  187.947">  1  6  2 -1</clus>
<clus scale="  187.947">  1  3  2 -1</clus>
</clustering>
</event>
<event>
 6    0  0.1555973E+002  0.1287271E+03  0.7546771E-02  0.1229357E+00
         21   -1    0    0  503  501  0.00000000000E+00  0.00000000000E+00  0.25379749981E+03  0.25379749981E+03  0.00000000000E+00 0. -1.
         21   -1    0    0  504  502 -0.00000000000E+00 -0.00000000000E+00 -0.91212169614E+02  0.91212169614E+02  0.00000000000E+00 0.  1.
         21    1    1    2  503  506  0.10970438605E+02  0.51318401550E+02  0.91963000971E+02  0.10588258784E+03  0.00000000000E+00 0. -1.
         21    1    1    2  504  501  0.52896648232E+02 -0.97637885621E+02  0.40268743085E+01  0.11111898046E+03  0.00000000000E+00 0.  1.
         21    1    1    2  505  502 -0.31969955136E+02 -0.18307261584E+02  0.17360014832E+02  0.40725961905E+02  0.00000000000E+00 0.  1.
         21    1    1    2  506  505 -0.31897131701E+02  0.64626745655E+02  0.49235440082E+02  0.87282139208E+02  0.00000000000E+00 0. -1.
<scales pt_clust_3="49.42714" pt_clust_4="114.35143" pt_clust_5="36.84065" pt_clust_6="49.42714"></scales>
<clustering>
<clus scale="   36.841">  2  5  1 -1</clus>
<clus scale="   49.427">  3  6 -1 -1</clus>
<clus scale="  114.351">  2  4  1 -1</clus>
<clus scale="  128.727">  1  3  2 -1</clus>
</clustering>
</event>
<event>
 6    0  0.1555973E+002  0.3045486E+03  0.7546771E-02  0.1082989E+00
         21   -1    0    0  502  501  0.00000000000E+00  0.00000000000E+00  0.17369929997E+04  0.17369929997E+04  0.00000000000E+00 0. -1.
         21   -1    0    0  506  502 -0.00000000000E+00 -0.00000000000E+00 -0.54688177630E+03  0.54688177630E+03  0.00000000000E+00 0. -1.
         21    1    1    2  503  504  0.11948038455E+03  0.25747624598E+02  0.53923914244E+03  0.55291713232E+03  0.00000000000E+00 0. -1.
         21    1    1    2  504  501  0.10283073189E+03 -0.48395612499E+02  0.77429864831E+03  0.78259484505E+03  0.00000000000E+00 0. -1.
         21    1    1    2  505  503  0.46094994417E+02  0.43065069234E+02  0.37587045634E+03  0.38112720796E+03  0.00000000000E+00 0. -1.
         21    1    1    2  506  505 -0.26840611086E+03 -0.20417081332E+02 -0.49929702365E+03  0.56723559072E+03  0.00000000000E+00 0. -1.
<scales pt_clust_3="97.66365" pt_clust_4="97.66365" pt_clust_5="38.43936" pt_clust_6="269.18153"></scales>
<clustering>
<clus scale="   38.439">  3  5 -1 -1</clus>
<clus scale="   97.664">  3  4 -1 -1</clus>
<clus scale="  269.182">  2  6  1 -1</clus>
<clus scale="  304.549">  1  3  2 -1</clus>
</clustering>
</event>
<event>
 6    0  0.1555973E+002  0.1974136E+03  0.7546771E-02  0.1151940E+00
         21   -1    0    0  503  501  0.00000000000E+00  0.00000000000E+00  0.17035599210E+03  0.17035599210E+03  0.00000000000E+00 0. -1.
         21   -1    0    0  505  502 -0.00000000000E+00 -0.00000000000E+00 -0.44536724217E+03  0.44536724217E+03  0.00000000000E+00 0.  1.
         21    1    1    2  503  504 -0.40918493302E+02 -0.40508322024E+02  0.31797944867E+02  0.65775045002E+02  0.00000000000E+00 0. -1.
         21    1    1    2  504  502 -0.11651711959E+03  0.22096524190E+02  0.35725290165E+02  0.12385795048E+03  0.00000000000E+00 0. -1.
         21    1    1    2  505  506  0.18428112216E+03 -0.25392423158E+02 -0.31967099055E+03  0.36985652534E+03  0.00000000000E+00 0.  1.
         21    1    1    2  506  501 -0.26845509262E+02  0.43804220992E+02 -0.22863494554E+02  0.56233713442E+02  0.00000000000E+00 0. -1.
<scales pt_clust_3="50.54109" pt_clust_4="50.54109" pt_clust_5="180.81983" pt_clust_6="51.37598"></scales>
<clustering>
<clus scale="   51.376">  1  6  2 -1</clus>
<clus scale="   50.541">  3  4 -1 -1</clus>
<clus scale="  180.820">  2  5  1 -1</clus>
<clus scale="   51.376">  1  3  2 -1</clus>
</clustering>
</event>
<event>
 6    0  0.1555973E+002  0.1123886E+03  0.7546771E-02  0.1256209E+00
         21   -1    0    0  503  501  0.00000000000E+00  0.00000000000E+00  0.89294140852E+02  0.89294140852E+02  0.00000000000E+00 0.  1.
         21   -1    0    0  505  502 -0.00000000000E+00 -0.00000000000E+00 -0.11929456626E+04  0.11929456626E+04  0.00000000000E+00 0. -1.
         21    1    1    2  503  506  0.47755701846E+01 -0.35003595608E+02 -0.29418846819E+02  0.45973104357E+02  0.00000000000E+00 0.  1.
         21    1    1    2  504  501 -0.26805660124E+02  0.26519965100E+02 -0.26362043907E+02  0.46008796143E+02  0.00000000000E+00 0.  1.
         21    1    1    2  505  504 -0.79908973915E+02 -0.41110304856E+02  0.38661848885E+02  0.97827602632E+02  0.00000000000E+00 0.  1.
         21    1    1    2  506  502  0.10193906385E+03  0.49593935364E+02 -0.10865324799E+04  0.10924303003E+04  0.00000000000E+00 0. -1.
<scales pt_clust_3="35.32786" pt_clust_4="34.40995" pt_clust_5="14000.00000" pt_clust_6="112.38858"></scales>
<clustering>
<clus scale="   35.328">  1  3  2 -1</clus>
<clus scale="   34.410">  1  4  2 -1</clus>
<clus scale="  112.389">  2  6  1 -1</clus>
<clus scale="   35.328">  1  3  2 -1</clus>
</clustering>
</event>
<event>
 6    0  0.1555973E+002  0.1165171E+03  0.7546771E-02  0.1248956E+00
         21   -1    0    0  504  501  0.00000000000E+00  0.00000000000E+00  0.64286124224E+03  0.64286124224E+03  0.00000000000E+00 0. -1.
         21   -1    0    0  506  502 -0.00000000000E+00 -0.00000000000E+00 -0.17679667315E+03  0.17679667315E+03  0.00000000000E+00 0. -1.
         21    1    1    2  503  502 -0.43326558321E+02 -0.62516897630E+02 -0.13911795187E+03  0.15855395825E+03  0.00000000000E+00 0. -1.
         21    1    1    2  504  505  0.42147180446E+02  0.10554938761E+03  0.17168519633E+03  0.20589527601E+03  0.00000000000E+00 0. -1.
         21    1    1    2  505  503 -0.16980871466E+02  0.43700429040E+02  0.10543082839E+03  0.11538516833E+03  0.00000000000E+00 0. -1.
         21    1    1    2  506  501  0.18160249340E+02 -0.86732919016E+02  0.32806649624E+03  0.33982351280E+03  0.00000000000E+00 0. -1.
<scales pt_clust_3="76.06282" pt_clust_4="38.10030" pt_clust_5="38.10030" pt_clust_6="100.28587"></scales>
<clustering>
<clus scale="   38.100">  4  5 -1 -1</clus>
<clus scale="   76.063">  2  3  1 -1</clus>
<clus scale="  100.286">  1  6  2 -1</clus>
<clus scale="  100.286">  1  3  2 -1</clus>
</clustering>
</event>
<event>
 6    0  0.1923794E+002  0.1278316E+03  0.7546771E-02  0.1230709E+00
         21   -1    0    0  503  501  0.00000000000E+00  0.00000000000E+00  0.45935740753E+03  0.45935740753E+03  0.00000000000E+00 0.  1.
         21   -1    0    0  504  502 -0.00000000000E+00 -0.00000000000E+00 -0.24758902314E+03  0.24758902314E+03  0.00000000000E+00 0. -1.
         21    1    1    2  503  505 -0.53213342912E+02  0.20307705610E+01  0.28001485735E+03  0.28503351422E+03  0.00000000000E+00 0.  1.
         21    1    1    2  504  501 -0.22657767447E+02 -0.27421952209E+02  0.18453146906E+02  0.40073139625E+02  0.00000000000E+00 0. -1.
         21    1    1    2  505  506 -0.43127337124E+02 -0.11763001083E+02  0.12688836488E+03  0.13453249624E+03  0.00000000000E+00 0.  1.
         21    1    1    2  506  502  0.11899844748E+03  0.37154182731E+02 -0.21358798475E+03  0.24730728058E+03  0.00000000000E+00 0. -1.
<scales pt_clust_3="30.23744" pt_clust_4="35.57159" pt_clust_5="30.23744" pt_clust_6="123.49796"></scales>
<clustering>
<clus scale="   30.237">  3  5 -1 -1</clus>
<clus scale="   35.572">  1  4  2 -1</clus>
<clus scale="  123.498">  2  6  1 -1</clus>
<clus scale="   35.572">  1  3  2 -1</clus>
</clustering>
</event>
<event>
 6    0  0.1555973E+002  0.1483012E+03  0.7546771E-02  0.1202576E+00
         21   -1    0    0  505  501  0.00000000000E+00  0.00000000000E+00  0.12660425138E+03  0.12660425138E+03  0.00000000000E+00 0. -1.
         21   -1    0    0  504  502 -0.00000000000E+00 -0.00000000000E+00 -0.65839246020E+03  0.65839246020E+03  0.00000000000E+00 0. -1.
         21    1    1    2  503  501  0.13527494219E+01  0.15294376305E+03 -0.53120796213E+03  0.55278885989E+03  0.00000000000E+00 0. -1.
         21    1    1    2  504  503 -0.28968056079E+02 -0.12216699527E+02 -0.64078468388E+02  0.71375388835E+02  0.00000000000E+00 0. -1.
         21    1    1    2  505  506  0.21544803545E+02 -0.72685424852E+02  0.51045802856E+02  0.91394876962E+02  0.00000000000E+00 0. -1.
         21    1    1    2  506  502  0.60705031117E+01 -0.68041638667E+02  0.12452418845E+02  0.69437585900E+02  0.00000000000E+00 0. -1.
<scales pt_clust_3="143.96147" pt_clust_4="31.43877" pt_clust_5="33.89631" pt_clust_6="33.89631"></scales>
<clustering>
<clus scale="   31.439">  2  4  1 -1</clus>
<clus scale="   33.896">  5  6 -1 -1</clus>
<clus scale="  143.961">  2  3  1 -1</clus>
<clus scale="  148.301">  1  3  2 -1</clus>
</clustering>
</event>
<event>
 6    0  0.1555973E+002  0.1221481E+03  0.7546771E-02  0.1239595E+00
         21   -1    0    0  505  501  0.00000000000E+00  0.00000000000E+00  0.18464230429E+03  0.18464230429E+03  0.00000000000E+00 0.  1.
         21   -1    0    0  504  502 -0.00000000000E+00 -0.00000000000E+00 -0.72906191350E+03  0.72906191350E+03  0.00000000000E+00 0.  1.
         21    1    1    2  503  502 -0.31552838603E+02  0.43344820395E+02 -0.64723673136E+03  0.64945341750E+03  0.00000000000E+00 0.  1.
         21    1    1    2  504  501 -0.64904210705E+02 -0.97393682125E+02  0.77507245282E+02  0.14037613386E+03  0.00000000000E+00 0.  1.
         21    1    1    2  505  506  0.52379020666E+02  0.48586128792E+02  0.33171890869E+02  0.78768953660E+02  0.00000000000E+00 0.  1.
         21    1    1    2  506  503  0.44078028642E+02  0.54627329377E+01 -0.78620140005E+01  0.45105712768E+02  0.00000000000E+00 0.  1.
<scales pt_clust_3="53.61301" pt_clust_4="111.53943" pt_clust_5="39.25833" pt_clust_6="39.25833"></scales>
<clustering>
<clus scale="   39.258">  5  6 -1 -1</clus>
<clus scale="   53.613">  2  3  1 -1</clus>
<clus scale="  111.539">  1  4  2 -1</clus>
<clus scale="  111.539">  1  3  2 -1</clus>
</clustering>
</event>
<event>
 6    0  0.1555973E+002  0.1638086E+03  0.7546771E-02  0.1184463E+00
         21   -1    0    0  503  501  0.00000000000E+00  0.00000000000E+00  0.29420009998E+03  0.29420009998E+03  0.00000000000E+00 0.  1.
         21   -1    0    0  505  502 -0.00000000000E+00 -0.00000000000E+00 -0.76562747945E+03  0.76562747945E+03  0.00000000000E+00 0. -1.
         21    1    1    2  503  504 -0.25717637004E+02 -0.81747238859E+02  0.91602210007E+02  0.12543911986E+03  0.00000000000E+00 0.  1.
         21    1    1    2  504  502 -0.46011539182E+00  0.17203868436E+03 -0.66792390331E+03  0.68972448212E+03  0.00000000000E+00 0. -1.
         21    1    1    2  505  506  0.48951181029E+02 -0.60776882175E+02 -0.45081564114E+02  0.90124330533E+02  0.00000000000E+00 0.  1.
         21    1    1    2  506  501 -0.22773428634E+02 -0.29514563328E+02  0.14997587795E+03  0.15453964691E+03  0.00000000000E+00 0. -1.
<scales pt_clust_3="163.80859" pt_clust_4="14000.00000" pt_clust_5="79.62730" pt_clust_6="37.27920"></scales>
<clustering>
<clus scale="   37.279">  1  6  2 -1</clus>
<clus scale="   79.627">  1  5  2 -1</clus>
<clus scale="  163.809">  1  3  2 -1</clus>
<clus scale="   37.279">  1  3  2 -1</clus>
</clustering>
</event>
<event>
 6    0  0.1555973E+002  0.1245003E+03  0.7546771E-02  0.1235852E+00
         21   -1    0    0  506  501  0.00000000000E+00  0.00000000000E+00  0.64814771678E+02  0.64814771678E+02  0.00000000000E+00 0. -1.
         21   -1    0    0  505  502 -0.00000000000E+00 -0.00000000000E+00 -0.18101202023E+04  0.18101202023E+04  0.00000000000E+00 0. -1.
         21    1    1    2  503  502  0.44222494630E+00  0.83159396696E+02 -0.13301053291E+04  0.13327024677E+04  0.00000000000E+00 0. -1.
         21    1    1    2  504  501  0.22304000592E+02 -0.13926181013E+03 -0.47828400364E+02  0.14892574017E+03  0.00000000000E+00 0. -1.
         21    1    1    2  505  504  0.36605037203E+02 -0.19323909248E+02 -0.15165060456E+03  0.15719811730E+03  0.00000000000E+00 0.  1.
         21    1    1    2  506  503 -0.59351262741E+02  0.75426322684E+02 -0.21572109657E+03  0.23610864882E+03  0.00000000000E+00 0. -1.
<scales pt_clust_3="73.92689" pt_clust_4="14000.00000" pt_clust_5="41.39254" pt_clust_6="124.50031"></scales>
<clustering>
<clus scale="   41.393">  2  5  1 -1</clus>
<clus scale="   73.927">  2  3  1 -1</clus>
<clus scale="  124.500">  2  6  1 -1</clus>
<clus scale="  124.500">  1  3  2 -1</clus>
</clustering>
</event>
<event>
 6    0  0.1555973E+002  0.1023700E+03  0.7546771E-02  0.1275390E+00
         21   -1    0    0  503  501  0.00000000000E+00  0.00000000000E+00  0.11152448144E+04  0.11152448144E+04  0.00000000000E+00 0.  1.
         21   -1    0    0  506  502 -0.00000000000E+00 -0.00000000000E+00 -0.13724695652E+03  0.13724695652E+03  0.00000000000E+00 0.  1.
         21    1    1    2  503  505  0.55471867312E+02  0.24445912480E+01  0.71454833622E+03  0.71670246887E+03  0.00000000000E+00 0.  1.
         21    1    1    2  504  501 -0.88735063701E+02 -0.10144770357E+03  0.11511794173E+03  0.17725035571E+03  0.00000000000E+00 0.  1.
         21    1    1    2  505  502 -0.23659097316E+01  0.87990335599E+02  0.24211177438E+03  0.25761600878E+03  0.00000000000E+00 0.  1.
         21    1    1    2  506  504  0.35629106120E+02  0.11012776727E+02 -0.93780194454E+02  0.10092293756E+03  0.00000000000E+00 0.  1.
<scales pt_clust_3="56.50033" pt_clust_4="14000.00000" pt_clust_5="102.37003" pt_clust_6="37.29228"></scales>
<clustering>
<clus scale="   37.292">  2  6  1 -1</clus>
<clus scale="   56.500">  1  3  2 -1</clus>
<clus scale="  102.370">  1  5  2 -1</clus>
<clus scale="   56.500">  1  3  2 -1</clus>
</clustering>
</event>
<event>
 6    0  0.1555973E+002  0.1122134E+03  0.7546771E-02  0.1256525E+00
         21   -1    0    0  505  501  0.00000000000E+00  0.00000000000E+00  0.16305845816E+04  0.16305845816E+04  0.00000000000E+00 0.  1.
         21   -1    0    0  503  502 -0.00000000000E+00 -0.00000000000E+00 -0.49246759440E+03  0.49246759440E+03  0.00000000000E+00 0. -1.
         21    1    1    2  503  504 -0.85838944128E+02 -0.72167720255E+02 -0.47405237753E+03  0.48713669623E+03  0.00000000000E+00 0. -1.
         21    1    1    2  504  506  0.40659164937E+01  0.51885288153E+02  0.11713465593E+03  0.12817621629E+03  0.00000000000E+00 0.  1.
         21    1    1    2  505  502  0.12279593713E+03  0.49182751022E+02  0.12851220903E+04  0.12919119831E+04  0.00000000000E+00 0.  1.
         21    1    1    2  506  501 -0.41022909493E+02 -0.28900318921E+02  0.20991261849E+03  0.21582728033E+03  0.00000000000E+00 0.  1.
<scales pt_clust_3="14000.00000" pt_clust_4="49.38764" pt_clust_5="112.21339" pt_clust_6="50.18075"></scales>
<clustering>
<clus scale="   50.181">  1  6  2 -1</clus>
<clus scale="   49.388">  1  4  2 -1</clus>
<clus scale="  112.213">  1  5  2 -1</clus>
<clus scale="   50.181">  1  3  2 -1</clus>
</clustering>
</event>
<event>
 6    0  0.1555973E+002  0.1225474E+03  0.7546771E-02  0.1238953E+00
         21   -1    0    0  503  501  0.00000000000E+00  0.00000000000E+00  0.70699489491E+03  0.70699489491E+03  0.00000000000E+00 0. -1.
         21   -1    0    0  506  502 -0.00000000000E+00 -0.00000000000E+00 -0.33114479430E+03  0.33114479430E+03  0.00000000000E+00 0.  1.
         21    1    1    2  503  502  0.16288673717E+03  0.47632681516E+02 -0.25689019891E+03  0.30788558880E+03  0.00000000000E+00 0.  1.
         21    1    1    2  504  505 -0.82422071891E+02 -0.13527787033E+02  0.13052448944E+03  0.15496141875E+03  0.00000000000E+00 0. -1.
         21    1    1    2  505  501 -0.46127777494E+02  0.19702851050E+01  0.52027200775E+03  0.52231658592E+03  0.00000000000E+00 0. -1.
         21    1    1    2  506  504 -0.34336887783E+02 -0.36075179588E+02 -0.18056197673E+02  0.52976095735E+02  0.00000000000E+00 0.  1.
<scales pt_clust_3="14000.00000" pt_clust_4="122.54739" pt_clust_5="46.16984" pt_clust_6="52.76134"></scales>
<clustering>
<clus scale="   46.170">  1  5  2 -1</clus>
<clus scale="   52.761">  2  6  1 -1</clus>
<clus scale="  122.547">  1  4  2 -1</clus>
<clus scale="   46.170">  1  3  2 -1</clus>
</clustering>
</event>
<event>
 6    0  0.1555973E+002  0.1956295E+03  0.7546771E-02  0.1153480E+00
         21   -1    0    0  505  501  0.00000000000E+00  0.00000000000E+00  0.20048844095E+04  0.20048844095E+04  0.00000000000E+00 0.  1.
         21   -1    0    0  504  502 -0.00000000000E+00 -0.00000000000E+00 -0.84399322628E+03  0.84399322628E+03  0.00000000000E+00 0.  1.
         21    1    1    2  503  501 -0.16792147613E+03 -0.86209168544E+02  0.19002486060E+04  0.19096005885E+04  0.00000000000E+00 0.  1.
         21    1    1    2  504  503  0.28574604644E+02  0.21595411761E+02 -0.77087826536E+03  0.77170990006E+03  0.00000000000E+00 0.  1.
         21    1    1    2  505  506  0.58147072883E+02  0.56996405765E+02  0.41053761553E+01  0.81526231781E+02  0.00000000000E+00 0.  1.
         21    1    1    2  506  502  0.81199798598E+02  0.76173510184E+01  0.27415466365E+02  0.86040915412E+02  0.00000000000E+00 0.  1.
<scales pt_clust_3="186.48917" pt_clust_4="35.81717" pt_clust_5="57.23845" pt_clust_6="57.23845"></scales>
<clustering>
<clus scale="   35.817">  2  4  1 -1</clus>
<clus scale="   57.238">  5  6 -1 -1</clus>
<clus scale="  186.489">  1  3  2 -1</clus>
<clus scale="  186.489">  1  3  2 -1</clus>
</clustering>
</event>
<event>
 6    0  0.1555973E+002  0.9593437E+02  0.7546771E-02  0.1289085E+00
         21   -1    0    0  504  501  0.00000000000E+00  0.00000000000E+00  0.13258403274E+03  0.13258403274E+03  0.00000000000E+00 0. -1.
         21   -1    0    0  503  502 -0.00000000000E+00 -0.00000000000E+00 -0.11189721817E+04  0.11189721817E+04  0.00000000000E+00 0.  1.
         21    1    1    2  503  506 -0.88431582793E+02 -0.36261960693E+02 -0.98853080394E+03  0.99314058671E+03  0.00000000000E+00 0.  1.
         21    1    1    2  504  505 -0.15051126736E+02  0.28810466897E+02  0.58966457815E+02  0.67332180761E+02  0.00000000000E+00 0. -1.
         21    1    1    2  505  502 -0.16760820465E+02  0.38276330007E+02  0.18703475584E+02  0.45780154438E+02  0.00000000000E+00 0. -1.
         21    1    1    2  506  501  0.12024353000E+03 -0.30824836211E+02 -0.75527278407E+02  0.14530329252E+03  0.00000000000E+00 0. -1.
<scales pt_clust_3="95.93437" pt_clust_4="31.17242" pt_clust_5="82.23005" pt_clust_6="14000.00000"></scales>
<clustering>
<clus scale="   31.172">  4  5 -1 -1</clus>
<clus scale="   82.230">  1  4  2 -1</clus>
<clus scale="   95.934">  2  3  1 -1</clus>
<clus scale="   82.230">  1  3  2 -1</clus>
</clustering>
</event>
<event>
 6    0  0.1555973E+002  0.8337692E+02  0.7546771E-02  0.1319732E+00
         21   -1    0    0  505  501  0.00000000000E+00  0.00000000000E+00  0.16185287564E+03  0.16185287564E+03  0.00000000000E+00 0.  1.
         21   -1    0    0  506  502 -0.00000000000E+00 -0.00000000000E+00 -0.47691722437E+03  0.47691722437E+03  0.00000000000E+00 0. -1.
         21    1    1    2  503  504 -0.69050338847E+02 -0.83005748356E+01  0.24345978573E+02  0.73685653354E+02  0.00000000000E+00 0.  1.
         21    1    1    2  504  501 -0.40966403667E+02 -0.40205569339E+02  0.77067926578E+02  0.96094741492E+02  0.00000000000E+00 0.  1.
         21    1    1    2  505  502  0.71811863208E+02 -0.30852683353E+02 -0.51656863901E+02  0.93687050095E+02  0.00000000000E+00 0. -1.
         21    1    1    2  506  503  0.38204879306E+02  0.79358827528E+02 -0.36482138998E+03  0.37530265506E+03  0.00000000000E+00 0. -1.
<scales pt_clust_3="14000.00000" pt_clust_4="57.39977" pt_clust_5="73.59079" pt_clust_6="83.37692"></scales>
<clustering>
<clus scale="   57.400">  1  4  2 -1</clus>
<clus scale="   73.591">  1  5  2 -1</clus>
<clus scale="   83.377">  2  6  1 -1</clus>
<clus scale="   57.400">  1  3  2 -1</clus>
</clustering>
</event>
<event>
 6    0  0.1555973E+002  0.8099016E+02  0.7546771E-02  0.1326265E+00
         21   -1    0    0  505  501  0.00000000000E+00  0.00000000000E+00  0.10230776029E+03  0.10230776029E+03  0.00000000000E+00 0.  1.
         21   -1    0    0  503  502 -0.00000000000E+00 -0.00000000000E+00 -0.21840276623E+03  0.21840276623E+03  0.00000000000E+00 0.  1.
         21    1    1    2  503  506  0.67803624446E+02 -0.31444971928E+01 -0.52518973942E+02  0.85822269688E+02  0.00000000000E+00 0.  1.
         21    1    1    2  504  502 -0.99682082970E+02 -0.16288107628E+02 -0.82028697572E+02  0.13011735987E+03  0.00000000000E+00 0.  1.
         21    1    1    2  505  504 -0.13202838158E+02  0.45804400559E+02 -0.41747223151E+01  0.47851712116E+02  0.00000000000E+00 0. -1.
         21    1    1    2  506  501  0.45081296682E+02 -0.26371795739E+02  0.22627387889E+02  0.56919184848E+02  0.00000000000E+00 0.  1.
<scales pt_clust_3="14000.00000" pt_clust_4="80.99016" pt_clust_5="47.66926" pt_clust_6="38.73579"></scales>
<clustering>
<clus scale="   47.669">  1  5  2 -1</clus>
<clus scale="   38.736">  1  6  2 -1</clus>
<clus scale="   80.990">  1  4  2 -1</clus>
<clus scale="   47.669">  1  3  2 -1</clus>
</clustering>
</event>
<event>
 6    0  0.1555973E+002  0.8707752E+02  0.7546771E-02  0.1310087E+00
         21   -1    0    0  505  501  0.00000000000E+00  0.00000000000E+00  0.27315843617E+03  0.27315843617E+03  0.00000000000E+00 0.  1.
         21   -1    0    0  504  502 -0.00000000000E+00 -0.00000000000E+00 -0.42629252068E+03  0.42629252068E+03  0.00000000000E+00 0.  1.
         21    1    1    2  503  502  0.38647915266E+02 -0.79282658914E+02 -0.39220556593E+03  0.40200075536E+03  0.00000000000E+00 0.  1.
         21    1    1    2  504  501 -0.75927704336E+02  0.15691410074E+02  0.16163945265E+03  0.17927227697E+03  0.00000000000E+00 0.  1.
         21    1    1    2  505  506  0.34625904254E+02  0.13365369253E+02  0.21237414718E+02  0.42762297934E+02  0.00000000000E+00 0.  1.
         21    1    1    2  506  503  0.26538848160E+01  0.50225879587E+02  0.56194614063E+02  0.75415626594E+02  0.00000000000E+00 0.  1.
<scales pt_clust_3="14000.00000" pt_clust_4="87.07752" pt_clust_5="37.11585" pt_clust_6="55.21553"></scales>
<clustering>
<clus scale="   37.116">  1  5  2 -1</clus>
<clus scale="   55.216">  1  6  2 -1</clus>
<clus scale="   87.078">  1  4  2 -1</clus>
<clus scale="   37.116">  1  3  2 -1</clus>
</clustering>
</event>
<event>
 6    0  0.1555973E+002  0.2025852E+03  0.7546771E-02  0.1147576E+00
         21   -1    0    0  503  501  0.00000000000E+00  0.00000000000E+00  0.13989295884E+03  0.13989295884E+03  0.00000000000E+00 0.  1.
         21   -1    0    0  506  502 -0.00000000000E+00 -0.00000000000E+00 -0.31494957196E+04  0.31494957196E+04  0.00000000000E+00 0.  1.
         21    1    1    2  503  505  0.59471961855E+02 -0.43500500213E+02 -0.15990041379E+02  0.75398204149E+02  0.00000000000E+00 0.  1.
         21    1    1    2  504  501  0.65497202646E+01 -0.46900229953E+02  0.29155492401E+02  0.55610908483E+02  0.00000000000E+00 0.  1.
         21    1    1    2  505  502 -0.10278452415E+02  0.19471060541E+03 -0.30333745277E+04  0.30396346642E+04  0.00000000000E+00 0.  1.
         21    1    1    2  506  504 -0.55743229704E+02 -0.10430987525E+03  0.10606315884E+02  0.11874490165E+03  0.00000000000E+00 0.  1.
<scales pt_clust_3="73.68316" pt_clust_4="37.61904" pt_clust_5="193.66547" pt_clust_6="37.61904"></scales>
<clustering>
<clus scale="   37.619">  4  6 -1 -1</clus>
<clus scale="   73.683">  1  3  2 -1</clus>
<clus scale="  193.665">  2  5  1 -1</clus>
<clus scale="   73.683">  1  3  2 -1</clus>
</clustering>
</event>
<event>
 6    0  0.1555973E+002  0.2226630E+03  0.7546771E-02  0.1131913E+00
         21   -1    0    0  506  501  0.00000000000E+00  0.00000000000E+00  0.11025337340E+04  0.11025337340E+04  0.00000000000E+00 0. -1.
         21   -1    0    0  504  502 -0.00000000000E+00 -0.00000000000E+00 -0.71257061911E+03  0.71257061911E+03  0.00000000000E+00 0. -1.
         21    1    1    2  503  502  0.79834111241E+02 -0.95749043416E+02  0.40672670655E+02  0.13113211190E+03  0.00000000000E+00 0.  1.
         21    1    1    2  504  505 -0.43049476495E+02 -0.12323720189E+02 -0.61231825320E+03  0.61395339783E+03  0.00000000000E+00 0. -1.
         21    1    1    2  505  501 -0.74384216125E+02  0.20578558303E+03  0.93734491755E+03  0.96254673250E+03  0.00000000000E+00 0. -1.
         21    1    1    2  506  503  0.37599581379E+02 -0.97712819429E+02  0.24263779858E+02  0.10747211086E+03  0.00000000000E+00 0.  1.
<scales pt_clust_3="35.45816" pt_clust_4="44.77869" pt_clust_5="219.27553" pt_clust_6="35.45816"></scales>
<clustering>
<clus scale="   35.458">  3  6 -1 -1</clus>
<clus scale="   44.779">  2  4  1 -1</clus>
<clus scale="  219.276">  1  5  2 -1</clus>
<clus scale="  219.276">  1  3  2 -1</clus>
</clustering>
</event>
<event>
 6    0  0.1555973E+002  0.1246874E+03  0.7546771E-02  0.1235559E+00
         21   -1    0    0  506  501  0.00000000000E+00  0.00000000000E+00  0.11686023284E+04  0.11686023284E+04  0.00000000000E+00 0.  1.
         21   -1    0    0  505  502 -0.00000000000E+00 -0.00000000000E+00 -0.12090665650E+04  0.12090665650E+04  0.00000000000E+00 0. -1.
         21    1    1    2  503  502 -0.67371366293E+02  0.19344226894E+02  0.13696794469E+03  0.15386135962E+03  0.00000000000E+00 0.  1.
         21    1    1    2  504  501  0.25132670806E+02  0.14027081540E+03  0.93204295857E+03  0.94287413233E+03  0.00000000000E+00 0.  1.
         21    1    1    2  505  504  0.20709021999E+02 -0.12292211096E+03 -0.11864521213E+04  0.11929825418E+04  0.00000000000E+00 0. -1.
         21    1    1    2  506  503  0.21529673489E+02 -0.36692931334E+02  0.76976981405E+02  0.87950859669E+02  0.00000000000E+00 0.  1.
<scales pt_clust_3="66.08400" pt_clust_4="124.68742" pt_clust_5="14000.00000" pt_clust_6="42.54290"></scales>
<clustering>
<clus scale="   42.543">  1  6  2 -1</clus>
<clus scale="   66.084">  1  3  2 -1</clus>
<clus scale="  124.687">  1  4  2 -1</clus>
<clus scale="   42.543">  1  3  2 -1</clus>
</clustering>
</event>
<event>
 6    0  0.1555973E+002  0.1135165E+03  0.7546771E-02  0.1254193E+00
         21   -1    0    0  505  501  0.00000000000E+00  0.00000000000E+00  0.78134437656E+03  0.78134437656E+03  0.00000000000E+00 0. -1.
         21   -1    0    0  506  502 -0.00000000000E+00 -0.00000000000E+00 -0.16109941138E+03  0.16109941138E+03  0.00000000000E+00 0. -1.
         21    1    1    2  503  501 -0.15462476588E+02 -0.38584522911E+02  0.70607913891E+02  0.81934919872E+02  0.00000000000E+00 0. -1.
         21    1    1    2  504  503 -0.33004243312E+02 -0.89618241696E+02  0.52408392764E+03  0.53271443807E+03  0.00000000000E+00 0. -1.
         21    1    1    2  505  502 -0.34203072923E+02  0.53165334359E+02 -0.12516802249E+03  0.14022637708E+03  0.00000000000E+00 0. -1.
         21    1    1    2  506  504  0.82669792823E+02  0.75037430248E+02  0.15072114614E+03  0.18756805292E+03  0.00000000000E+00 0.  1.
<scales pt_clust_3="41.56746" pt_clust_4="113.51654" pt_clust_5="62.96097" pt_clust_6="14000.00000"></scales>
<clustering>
<clus scale="   41.567">  1  3  2 -1</clus>
<clus scale="   62.961">  2  5  1 -1</clus>
<clus scale="  113.517">  1  4  2 -1</clus>
<clus scale="   41.567">  1  3  2 -1</clus>
</clustering>
</event>
<event>
 6    0  0.1555973E+002  0.1017237E+03  0.7546771E-02  0.1276712E+00
         21   -1    0    0  503  501  0.00000000000E+00  0.00000000000E+00  0.38790184361E+03  0.38790184361E+03  0.00000000000E+00 0. -1.
         21   -1    0    0  504  502 -0.00000000000E+00 -0.00000000000E+00 -0.58456395179E+03  0.58456395179E+03  0.00000000000E+00 0. -1.
         21    1    1    2  503  502 -0.31949146260E+02 -0.55170202099E+02  0.26064551313E+02  0.68875684980E+02  0.00000000000E+00 0. -1.
         21    1    1    2  504  506  0.98489904586E+02 -0.29701130191E+02 -0.53498346461E+03  0.54478410939E+03  0.00000000000E+00 0. -1.
         21    1    1    2  505  501  0.18965160824E+01  0.10189822383E+03  0.14446985021E+03  0.17680040276E+03  0.00000000000E+00 0. -1.
         21    1    1    2  506  505 -0.68437274408E+02 -0.17026891545E+02  0.16778695490E+03  0.18200559826E+03  0.00000000000E+00 0. -1.
<scales pt_clust_3="63.75342" pt_clust_4="101.72373" pt_clust_5="77.00194" pt_clust_6="14000.00000"></scales>
<clustering>
<clus scale="   63.753">  1  3  2 -1</clus>
<clus scale="   77.002">  1  5  2 -1</clus>
<clus scale="  101.724">  2  4  1 -1</clus>
<clus scale="   63.753">  1  3  2 -1</clus>
</clustering>
</event>
<event>
 6    0  0.1555973E+002  0.6872896E+02  0.7546771E-02  0.1364469E+00
         21   -1    0    0  503  501  0.00000000000E+00  0.00000000000E+00  0.38298199755E+03  0.38298199755E+03  0.00000000000E+00 0. -1.
         21   -1    0    0  506  502 -0.00000000000E+00 -0.00000000000E+00 -0.40109590609E+03  0.40109590609E+03  0.00000000000E+00 0. -1.
         21    1    1    2  503  502 -0.32806388454E+02  0.61250493833E+01 -0.19253754615E+02  0.38528981560E+02  0.00000000000E+00 0. -1.
         21    1    1    2  504  501 -0.54743378891E+02 -0.38868172220E+02  0.32462783956E+03  0.33149782286E+03  0.00000000000E+00 0. -1.
         21    1    1    2  505  504  0.11880625481E+03  0.14636971889E+02 -0.36996378128E+02  0.12529125716E+03  0.00000000000E+00 0. -1.
         21    1    1    2  506  505 -0.31256487462E+02  0.18106150947E+02 -0.28649161536E+03  0.28875984205E+03  0.00000000000E+00 0. -1.
<scales pt_clust_3="33.37327" pt_clust_4="14000.00000" pt_clust_5="68.72896" pt_clust_6="61.04184"></scales>
<clustering>
<clus scale="   33.373">  2  3  1 -1</clus>
<clus scale="   61.042">  2  6  1 -1</clus>
<clus scale="   68.729">  2  5  1 -1</clus>
<clus scale="   68.729">  1  3  2 -1</clus>
</clustering>
</event>
<event>
 6    0  0.1555973E+002  0.1480129E+03  0.7546771E-02  0.1202936E+00
         21   -1    0    0  506  501  0.00000000000E+00  0.00000000000E+00  0.29616564915E+03  0.29616564915E+03  0.00000000000E+00 0. -1.
         21   -1    0    0  504  502 -0.00000000000E+00 -0.00000000000E+00 -0.18004482045E+03  0.18004482045E+03  0.00000000000E+00 0. -1.
         21    1    1    2  503  501  0.10452763620E+02 -0.39133126424E+02  0.32187805867E+02  0.51736995443E+02  0.00000000000E+00 0. -1.
         21    1    1    2  504  503 -0.84131923893E+02 -0.72415811272E+02  0.12826290620E+03  0.16962783806E+03  0.00000000000E+00 0. -1.
         21    1    1    2  505  502  0.12923657758E+03  0.94113191893E+02 -0.87599947704E+02  0.18229957956E+03  0.00000000000E+00 0. -1.
         21    1    1    2  506  505 -0.55557417303E+02  0.17435745803E+02  0.43270064339E+02  0.72546056522E+02  0.00000000000E+00 0. -1.
<scales pt_clust_3="40.50508" pt_clust_4="14000.00000" pt_clust_5="148.01291" pt_clust_6="53.85465"></scales>
<clustering>
<clus scale="   40.505">  1  3  2 -1</clus>
<clus scale="   53.855">  1  6  2 -1</clus>
<clus scale="  148.013">  2  5  1 -1</clus>
<clus scale="   40.505">  1  3  2 -1</clus>
</clustering>
</event>
<event>
 6    0  0.1555973E+002  0.8225343E+02  0.7546771E-02  0.1322775E+00
         21   -1    0    0  505  501  0.00000000000E+00  0.00000000000E+00  0.42764006721E+03  0.42764006721E+03  0.00000000000E+00 0.  1.
         21   -1    0    0  504  502 -0.00000000000E+00 -0.00000000000E+00 -0.11248801050E+04  0.11248801050E+04  0.00000000000E+00 0. -1.
         21    1    1    2  503  501 -0.37617396655E+01  0.47097649847E+02  0.72476095433E+02  0.86516609479E+02  0.00000000000E+00 0.  1.
         21    1    1    2  504  506  0.77424123593E+02 -0.28259406928E+02 -0.10865179888E+04  0.10896395868E+04  0.00000000000E+00 0. -1.
         21    1    1    2  505  502  0.22488722948E+02  0.45276048887E+02  0.21963220260E+03  0.22537517095E+03  0.00000000000E+00 0.  1.
         21    1    1    2  506  503 -0.96151106875E+02 -0.64114291806E+02  0.97169653024E+02  0.15098880500E+03  0.00000000000E+00 0.  1.
<scales pt_clust_3="47.24764" pt_clust_4="82.25343" pt_clust_5="78.00677" pt_clust_6="14000.00000"></scales>
<clustering>
<clus scale="   47.248">  1  3  2 -1</clus>
<clus scale="   78.007">  1  5  2 -1</clus>
<clus scale="   82.253">  2  4  1 -1</clus>
<clus scale="   47.248">  1  3  2 -1</clus>
</clustering>
</event>
<event>
 6    0  0.1555973E+002  0.1158281E+03  0.7546771E-02  0.1250142E+00
         21   -1    0    0  504  501  0.00000000000E+00  0.00000000000E+00  0.13081233973E+03  0.13081233973E+03  0.00000000000E+00 0. -1.
         21   -1    0    0  506  502 -0.00000000000E+00 -0.00000000000E+00 -0.18359435645E+04  0.18359435645E+04  0.00000000000E+00 0.  1.
         21    1    1    2  503  502  0.35780312959E+01  0.39945845246E+02 -0.15808550545E+04  0.15813637077E+04  0.00000000000E+00 0.  1.
         21    1    1    2  504  503 -0.11133726051E+03 -0.21455428596E+02 -0.21164435710E+03  0.24010342539E+03  0.00000000000E+00 0.  1.
         21    1    1    2  505  501  0.51373487444E+02  0.24435776604E+01  0.60520078724E+02  0.79422202265E+02  0.00000000000E+00 0. -1.
         21    1    1    2  506  505  0.56385741772E+02 -0.20933994310E+02  0.26848108027E+02  0.65866568892E+02  0.00000000000E+00 0. -1.
<scales pt_clust_3="40.10577" pt_clust_4="109.06180" pt_clust_5="36.07214" pt_clust_6="36.07214"></scales>
<clustering>
<clus scale="   36.072">  5  6 -1 -1</clus>
<clus scale="   40.106">  2  3  1 -1</clus>
<clus scale="  109.062">  2  4  1 -1</clus>
<clus scale="  115.828">  1  3  2 -1</clus>
</clustering>
</event>
<event>
 6    0  0.1555973E+002  0.1199075E+03  0.7546771E-02  0.1243250E+00
         21   -1    0    0  504  501  0.00000000000E+00  0.00000000000E+00  0.90163069206E+02  0.90163069206E+02  0.00000000000E+00 0. -1.
         21   -1    0    0  503  502 -0.00000000000E+00 -0.00000000000E+00 -0.16309871645E+04  0.16309871645E+04  0.00000000000E+00 0.  1.
         21    1    1    2  503  506  0.64654355686E+02  0.16578369467E+02 -0.28977094620E+02  0.72764689624E+02  0.00000000000E+00 0. -1.
         21    1    1    2  504  502 -0.10417557685E+03 -0.26637413616E+02 -0.15503163595E+04  0.15540408351E+04  0.00000000000E+00 0.  1.
         21    1    1    2  505  501  0.15718041603E+02 -0.30524767778E+02  0.31849996691E+02  0.46832046389E+02  0.00000000000E+00 0. -1.
         21    1    1    2  506  505  0.23803179563E+02  0.40583811926E+02  0.66193621740E+01  0.47512662558E+02  0.00000000000E+00 0. -1.
<scales pt_clust_3="40.26730" pt_clust_4="107.25332" pt_clust_5="34.33392" pt_clust_6="40.26730"></scales>
<clustering>
<clus scale="   34.334">  1  5  2 -1</clus>
<clus scale="   40.267">  3  6 -1 -1</clus>
<clus scale="  107.253">  2  4  1 -1</clus>
<clus scale="   34.334">  1  3  2 -1</clus>
</clustering>
</event>
<event>
 6    0  0.1555973E+002  0.1207472E+03  0.7546771E-02  0.1241869E+00
         21   -1    0    0  503  501  0.00000000000E+00  0.00000000000E+00  0.30767032663E+02  0.30767032663E+02  0.00000000000E+00 0. -1.
         21   -1    0    0  506  502 -0.00000000000E+00 -0.00000000000E+00 -0.13705754262E+04  0.13705754262E+04  0.00000000000E+00 0. -1.
         21    1    1    2  503  504 -0.37330799084E+02  0.61393581337E+02 -0.19106432200E+03  0.20412823306E+03  0.00000000000E+00 0. -1.
         21    1    1    2  504  502 -0.10749075826E+03 -0.34391606244E+01 -0.85587833055E+03  0.86260872222E+03  0.00000000000E+00 0. -1.
         21    1    1    2  505  501  0.55516475269E+02 -0.22683870948E+02 -0.71557470544E+02  0.93365457307E+02  0.00000000000E+00 0. -1.
         21    1    1    2  506  505  0.89305082070E+02 -0.35270549765E+02 -0.22130827043E+03  0.24124004627E+03  0.00000000000E+00 0. -1.
<scales pt_clust_3="71.85235" pt_clust_4="112.78910" pt_clust_5="34.07061" pt_clust_6="34.07061"></scales>
<clustering>
<clus scale="   34.071">  5  6 -1 -1</clus>
<clus scale="   71.852">  1  3  2 -1</clus>
<clus scale="  112.789">  2  4  1 -1</clus>
<clus scale="   71.852">  1  3  2 -1</clus>
</clustering>
</event>
<event>
 6    0  0.1555973E+002  0.1414145E+03  0.7546771E-02  0.1211438E+00
         21   -1    0    0  505  501  0.00000000000E+00  0.00000000000E+00  0.16926173403E+04  0.16926173403E+04  0.00000000000E+00 0.  1.
         21   -1    0    0  503  502 -0.00000000000E+00 -0.00000000000E+00 -0.60855248120E+03  0.60855248120E+03  0.00000000000E+00 0. -1.
         21    1    1    2  503  504  0.23533477641E+02  0.76928493205E+02 -0.56580826053E+03  0.57149873606E+03  0.00000000000E+00 0. -1.
         21    1    1    2  504  501  0.38277310046E+02  0.32708156872E+02  0.57526233501E+03  0.57746145332E+03  0.00000000000E+00 0.  1.
         21    1    1    2  505  506 -0.92016185616E+02 -0.16279518584E+03  0.10749233589E+04  0.10910680448E+04  0.00000000000E+00 0.  1.
         21    1    1    2  506  502  0.30205397930E+02  0.53158535765E+02 -0.31257430645E+00  0.61141587250E+02  0.00000000000E+00 0. -1.
<scales pt_clust_3="141.41446" pt_clust_4="50.34855" pt_clust_5="14000.00000" pt_clust_6="62.43262"></scales>
<clustering>
<clus scale="   50.349">  1  4  2 -1</clus>
<clus scale="   62.433">  2  6  1 -1</clus>
<clus scale="  141.414">  2  3  1 -1</clus>
<clus scale="   50.349">  1  3  2 -1</clus>
</clustering>
</event>
<event>
 6    0  0.1555973E+002  0.1109152E+03  0.7546771E-02  0.1258884E+00
         21   -1    0    0  505  501  0.00000000000E+00  0.00000000000E+00  0.84229242019E+02  0.84229242019E+02  0.00000000000E+00 0.  1.
         21   -1    0    0  506  502 -0.00000000000E+00 -0.00000000000E+00 -0.81001110599E+03  0.81001110599E+03  0.00000000000E+00 0.  1.
         21    1    1    2  503  502 -0.10348200767E+03 -0.43636625023E+02 -0.66302578252E+03  0.67246997646E+03  0.00000000000E+00 0.  1.
         21    1    1    2  504  503  0.69475214427E+02  0.78570784787E+02  0.10951553939E+01  0.10488743017E+03  0.00000000000E+00 0.  1.
         21    1    1    2  505  504  0.57311516837E+02 -0.30013496349E+01 -0.29586259672E+02  0.64567521426E+02  0.00000000000E+00 0.  1.
         21    1    1    2  506  501 -0.23304723595E+02 -0.31932810128E+02 -0.34264977176E+02  0.52315419959E+02  0.00000000000E+00 0.  1.
<scales pt_clust_3="110.91521" pt_clust_4="14000.00000" pt_clust_5="52.92886" pt_clust_6="39.53245"></scales>
<clustering>
<clus scale="   39.532">  1  6  2 -1</clus>
<clus scale="   52.929">  1  5  2 -1</clus>
<clus scale="  110.915">  2  3  1 -1</clus>
<clus scale="   39.532">  1  3  2 -1</clus>
</clustering>
</event>
<event>
 6    0  0.1555973E+002  0.1595676E+03  0.7546771E-02  0.1189186E+00
         21   -1    0    0  503  501  0.00000000000E+00  0.00000000000E+00  0.14057841655E+03  0.14057841655E+03  0.00000000000E+00 0. -1.
         21   -1    0    0  505  502 -0.00000000000E+00 -0.00000000000E+00 -0.10412102780E+04  0.10412102780E+04  0.00000000000E+00 0. -1.
         21    1    1    2  503  502 -0.71628713947E+02  0.16100066837E+02  0.82101722110E+02  0.11013890133E+03  0.00000000000E+00 0. -1.
         21    1    1    2  504  501 -0.36695993419E+02  0.71959043177E+01 -0.99213791811E+01  0.38688638342E+02  0.00000000000E+00 0. -1.
         21    1    1    2  505  506  0.11409622935E+03 -0.12285085692E+03 -0.88293801153E+03  0.89871564736E+03  0.00000000000E+00 0. -1.
         21    1    1    2  506  504 -0.57715219875E+01  0.99554885767E+02 -0.89874192815E+02  0.13424550749E+03  0.00000000000E+00 0. -1.
<scales pt_clust_3="14000.00000" pt_clust_4="37.39488" pt_clust_5="159.56756" pt_clust_6="101.55817"></scales>
<clustering>
<clus scale="   37.395">  1  4  2 -1</clus>
<clus scale="  101.558">  1  6  2 -1</clus>
<clus scale="  159.568">  2  5  1 -1</clus>
<clus scale="   37.395">  1  3  2 -1</clus>
</clustering>
</event>
<event>
 6    0  0.1555973E+002  0.1287328E+03  0.7546771E-02  0.1229348E+00
         21   -1    0    0  506  501  0.00000000000E+00  0.00000000000E+00  0.11798260659E+03  0.11798260659E+03  0.00000000000E+00 0.  1.
         21   -1    0    0  505  502 -0.00000000000E+00 -0.00000000000E+00 -0.72911279024E+03  0.72911279024E+03  0.00000000000E+00 0.  1.
         21    1    1    2  503  501  0.40731986892E+02  0.14464897829E+03  0.29682055459E+02  0.15317782507E+03  0.00000000000E+00 0.  1.
         21    1    1    2  504  502 -0.95827852185E+01 -0.36112974034E+02 -0.66971755405E+02  0.76688934587E+02  0.00000000000E+00 0. -1.
         21    1    1    2  505  503 -0.65749842740E+02 -0.72874482314E+02 -0.55574785848E+03  0.56434866368E+03  0.00000000000E+00 0.  1.
         21    1    1    2  506  504  0.34600641067E+02 -0.35661521943E+02 -0.18092625222E+02  0.52879973496E+02  0.00000000000E+00 0. -1.
<scales pt_clust_3="128.73276" pt_clust_4="37.36277" pt_clust_5="14000.00000" pt_clust_6="50.75702"></scales>
<clustering>
<clus scale="   37.363">  2  4  1 -1</clus>
<clus scale="   50.757">  1  6  2 -1</clus>
<clus scale="  128.733">  1  3  2 -1</clus>
<clus scale="   50.757">  1  3  2 -1</clus>
</clustering>
</event>
<event>
 6    0  0.1555973E+002  0.1333739E+03  0.7546771E-02  0.1222534E+00
         21   -1    0    0  504  501  0.00000000000E+00  0.00000000000E+00  0.72874822198E+02  0.72874822198E+02  0.00000000000E+00 0. -1.
         21   -1    0    0  506  502 -0.00000000000E+00 -0.00000000000E+00 -0.56583929541E+03  0.56583929541E+03  0.00000000000E+00 0. -1.
         21    1    1    2  503  505  0.64724859015E+02 -0.88359786568E+02 -0.10788566384E+03  0.15374028658E+03  0.00000000000E+00 0. -1.
         21    1    1    2  504  503 -0.35739158469E+02 -0.38697343691E+02 -0.43624357228E+02  0.68394856534E+02  0.00000000000E+00 0.  1.
         21    1    1    2  505  502  0.30293823555E+02 -0.27377061923E+02 -0.18304160210E+03  0.18754052193E+03  0.00000000000E+00 0. -1.
         21    1    1    2  506  501 -0.59279524101E+02  0.15443419218E+03 -0.15841285004E+03  0.22903845256E+03  0.00000000000E+00 0. -1.
<scales pt_clust_3="133.37387" pt_clust_4="52.95321" pt_clust_5="40.83160" pt_clust_6="14000.00000"></scales>
<clustering>
<clus scale="   40.832">  2  5  1 -1</clus>
<clus scale="   52.953">  1  4  2 -1</clus>
<clus scale="  133.374">  1  3  2 -1</clus>
<clus scale="   52.953">  1  3  2 -1</clus>
</clustering>
</event>
<event>
 6    0  0.1555973E+002  0.1147124E+03  0.7546771E-02  0.1252084E+00
         21   -1    0    0  505  501  0.00000000000E+00  0.00000000000E+00  0.47549817802E+03  0.47549817802E+03  0.00000000000E+00 0.  1.
         21   -1    0    0  501  502 -0.00000000000E+00 -0.00000000000E+00 -0.68243415995E+03  0.68243415995E+03  0.00000000000E+00 0.  1.
         21    1    1    2  503  506 -0.12465202003E+03 -0.22690662213E+02  0.67706521329E+02  0.14365641399E+03  0.00000000000E+00 0.  1.
         21    1    1    2  504  503  0.11600641688E+03  0.36946530114E+02  0.27049528305E+03  0.29663147675E+03  0.00000000000E+00 0.  1.
         21    1    1    2  505  504 -0.23976750688E+02  0.19045313664E+02  0.82643991253E+02  0.88134203556E+02  0.00000000000E+00 0.  1.
         21    1    1    2  506  502  0.32622353838E+02 -0.33301181566E+02 -0.62778177756E+03  0.62951024368E+03  0.00000000000E+00 0.  1.
<scales pt_clust_3="114.71236" pt_clust_4="14000.00000" pt_clust_5="30.62039" pt_clust_6="46.55014"></scales>
<clustering>
<clus scale="   30.620">  1  5  2 -1</clus>
<clus scale="   46.550">  2  6  1 -1</clus>
<clus scale="  114.712">  2  3  1 -1</clus>
<clus scale="   30.620">  1  3  2 -1</clus>
</clustering>
</event>
<event>
 6    0  0.3357005E+002  0.1013947E+03  0.7546771E-02  0.1277390E+00
         21   -1    0    0  503  501  0.00000000000E+00  0.00000000000E+00  0.18938234290E+04  0.18938234290E+04  0.00000000000E+00 0. -1.
         21   -1    0    0  505  502 -0.00000000000E+00 -0.00000000000E+00 -0.18922099682E+03  0.18922099682E+03  0.00000000000E+00 0. -1.
         21    1    1    2  503  506 -0.27276394367E+02 -0.20339352409E+02  0.88955212973E+02  0.95240332114E+02  0.00000000000E+00 0. -1.
         21    1    1    2  504  502 -0.53843354446E+01 -0.10125865917E+03 -0.16908481770E+03  0.19715978977E+03  0.00000000000E+00 0. -1.
         21    1    1    2  505  501  0.56507120562E+01  0.10045245375E+03  0.15670092989E+04  0.15702358959E+04  0.00000000000E+00 0. -1.
         21    1    1    2  506  504  0.27010017756E+02  0.21145557828E+02  0.21772273805E+03  0.22040840805E+03  0.00000000000E+00 0.  1.
<scales pt_clust_3="34.02486" pt_clust_4="101.39470" pt_clust_5="14000.00000" pt_clust_6="30.16704"></scales>
<clustering>
<clus scale="   34.025">  1  3  2 -1</clus>
<clus scale="   30.167">  1  6  2 -1</clus>
<clus scale="  101.395">  2  4  1 -1</clus>
<clus scale="   34.025">  1  3  2 -1</clus>
</clustering>
</event>
<event>
 6    0  0.1555973E+002  0.8267800E+02  0.7546771E-02  0.1321619E+00
         21   -1    0    0  506  501  0.00000000000E+00  0.00000000000E+00  0.38380301358E+03  0.38380301358E+03  0.00000000000E+00 0.  1.
         21   -1    0    0  504  502 -0.00000000000E+00 -0.00000000000E+00 -0.86326541508E+02  0.86326541508E+02  0.00000000000E+00 0. -1.
         21    1    1    2  503  501  0.33277038669E+02 -0.79725967479E+01  0.15439616544E+03  0.15814265555E+03  0.00000000000E+00 0.  1.
         21    1    1    2  504  503  0.24723516927E+02 -0.72517685415E+02  0.86823699764E+02  0.11579474007E+03  0.00000000000E+00 0.  1.
         21    1    1    2  505  502 -0.92623892540E+02  0.24423370688E+02 -0.17404144585E+02  0.97358054385E+02  0.00000000000E+00 0. -1.
         21    1    1    2  506  505  0.34623336944E+02  0.56066911475E+02  0.73660751457E+02  0.98834105089E+02  0.00000000000E+00 0.  1.
<scales pt_clust_3="34.21876" pt_clust_4="14000.00000" pt_clust_5="82.67800" pt_clust_6="71.02889"></scales>
<clustering>
<clus scale="   34.219">  1  3  2 -1</clus>
<clus scale="   71.029">  1  6  2 -1</clus>
<clus scale="   82.678">  2  5  1 -1</clus>
<clus scale="   34.219">  1  3  2 -1</clus>
</clustering>
</event>
<event>
 6    0  0.1555973E+002  0.1055780E+03  0.7546771E-02  0.1268985E+00
         21   -1    0    0  503  501  0.00000000000E+00  0.00000000000E+00  0.74534382375E+03  0.74534382375E+03  0.00000000000E+00 0.  1.
         21   -1    0    0  505  502 -0.00000000000E+00 -0.00000000000E+00 -0.14283009561E+03  0.14283009561E+03  0.00000000000E+00 0.  1.
         21    1    1    2  503  502 -0.11970604077E+03  0.71922231744E+02  0.17291402109E+03  0.22226471224E+03  0.00000000000E+00 0.  1.
         21    1    1    2  504  506  0.85404619476E+02  0.52832028879E+02  0.46078087818E+03  0.47159748727E+03  0.00000000000E+00 0.  1.
         21    1    1    2  505  504  0.12155170551E+02 -0.78639125797E+02 -0.87470090566E+02  0.11824921573E+03  0.00000000000E+00 0.  1.
         21    1    1    2  506  501  0.22146250748E+02 -0.46115134827E+02  0.56288919429E+02  0.76062504118E+02  0.00000000000E+00 0.  1.
<scales pt_clust_3="14000.00000" pt_clust_4="105.57804" pt_clust_5="80.68302" pt_clust_6="51.15723"></scales>
<clustering>
<clus scale="   51.157">  1  6  2 -1</clus>
<clus scale="   80.683">  2  5  1 -1</clus>
<clus scale="  105.578">  1  4  2 -1</clus>
<clus scale="   51.157">  1  3  2 -1</clus>
</clustering>
</event>
<event>
 6    0  0.1555973E+002  0.1249634E+03  0.7546771E-02  0.1235126E+00
         21   -1    0    0  503  501  0.00000000000E+00  0.00000000000E+00  0.38277362835E+03  0.38277362835E+03  0.00000000000E+00 0.  1.
         21   -1    0    0  504  502 -0.00000000000E+00 -0.00000000000E+00 -0.76048434092E+03  0.76048434092E+03  0.00000000000E+00 0. -1.
         21    1    1    2  503  506 -0.40743000504E+02  0.50589536525E+00  0.48655383006E+02  0.63463330481E+02  0.00000000000E+00 0.  1.
         21    1    1    2  504  501 -0.54913692723E+02  0.39981699332E+02  0.29231597059E+03  0.30010444280E+03  0.00000000000E+00 0.  1.
         21    1    1    2  505  502  0.12625532038E+03  0.27408371824E+01 -0.71557947869E+03  0.72663739818E+03  0.00000000000E+00 0. -1.
         21    1    1    2  506  505 -0.30598627150E+02 -0.43228431879E+02 -0.31025874679E+01  0.53052797808E+02  0.00000000000E+00 0.  1.
<scales pt_clust_3="40.74614" pt_clust_4="14000.00000" pt_clust_5="124.96342" pt_clust_6="54.78989"></scales>
<clustering>
<clus scale="   40.746">  1  3  2 -1</clus>
<clus scale="   54.790">  1  6  2 -1</clus>
<clus scale="  124.963">  2  5  1 -1</clus>
<clus scale="   40.746">  1  3  2 -1</clus>
</clustering>
</event>
<event>
 6    0  0.1555973E+002  0.1762451E+03  0.7546771E-02  0.1171487E+00
         21   -1    0    0  504  501  0.00000000000E+00  0.00000000000E+00  0.43656574402E+03  0.43656574402E+03  0.00000000000E+00 0.  1.
         21   -1    0    0  506  502 -0.00000000000E+00 -0.00000000000E+00 -0.45578230580E+03  0.45578230580E+03  0.00000000000E+00 0.  1.
         21    1    1    2  503  505 -0.68631202844E+02 -0.25322372660E+02  0.77058239778E+02  0.10625176177E+03  0.00000000000E+00 0.  1.
         21    1    1    2  504  502  0.20319434190E+03 -0.11588888954E+01  0.13657226238E+03  0.24482905558E+03  0.00000000000E+00 0.  1.
         21    1    1    2  505  501 -0.43682872170E+02 -0.91811679193E+02  0.12053488891E+03  0.15769032057E+03  0.00000000000E+00 0.  1.
         21    1    1    2  506  503 -0.90880266884E+02  0.11829294075E+03 -0.35338195285E+03  0.38357691190E+03  0.00000000000E+00 0.  1.
<scales pt_clust_3="55.54150" pt_clust_4="163.63002" pt_clust_5="55.54150" pt_clust_6="149.17253"></scales>
<clustering>
<clus scale="   55.541">  3  5 -1 -1</clus>
<clus scale="  149.173">  2  6  1 -1</clus>
<clus scale="  163.630">  2  4  1 -1</clus>
<clus scale="  176.245">  1  3  2 -1</clus>
</clustering>
</event>
<event>
 6    0  0.1555973E+002  0.1015500E+03  0.7546771E-02  0.1277070E+00
         21   -1    0    0  506  501  0.00000000000E+00  0.00000000000E+00  0.68386974806E+03  0.68386974806E+03  0.00000000000E+00 0.  1.
         21   -1    0    0  505  502 -0.00000000000E+00 -0.00000000000E+00 -0.31031176691E+02  0.31031176691E+02  0.00000000000E+00 0. -1.
         21    1    1    2  503  501 -0.36355468538E+02  0.11671427826E+03  0.17590522936E+03  0.21421156028E+03  0.00000000000E+00 0. -1.
         21    1    1    2  504  503 -0.11998439322E+02 -0.37911575261E+02  0.66055320339E+02  0.77100943120E+02  0.00000000000E+00 0. -1.
         21    1    1    2  505  504  0.22265784959E+02 -0.33314195750E+02  0.90870138221E+02  0.99312551264E+02  0.00000000000E+00 0.  1.
         21    1    1    2  506  502  0.26088122901E+02 -0.45488507251E+02  0.32000788346E+03  0.32427587009E+03  0.00000000000E+00 0.  1.
<scales pt_clust_3="94.84102" pt_clust_4="36.16024" pt_clust_5="36.16024" pt_clust_6="52.43848"></scales>
<clustering>
<clus scale="   36.160">  4  5 -1 -1</clus>
<clus scale="   52.438">  1  6  2 -1</clus>
<clus scale="   94.841">  1  3  2 -1</clus>
<clus scale="   52.438">  1  3  2 -1</clus>
</clustering>
</event>
<event>
 6    0  0.1555973E+002  0.9082924E+02  0.7546771E-02  0.1300856E+00
         21   -1    0    0  505  501  0.00000000000E+00  0.00000000000E+00  0.11803163677E+03  0.11803163677E+03  0.00000000000E+00 0. -1.
         21   -1    0    0  506  502 -0.00000000000E+00 -0.00000000000E+00 -0.27113571380E+03  0.27113571380E+03  0.00000000000E+00 0. -1.
         21    1    1    2  503  502  0.19495427054E+02  0.60268962587E+02 -0.14748521111E+02  0.65037976616E+02  0.00000000000E+00 0. -1.
         21    1    1    2  504  501  0.70008419185E+02 -0.91198131626E+02  0.44733414585E+01  0.11505776268E+03  0.00000000000E+00 0. -1.
         21    1    1    2  505  503 -0.46595955223E+02  0.54126299105E+02 -0.16005499626E+02  0.73191634195E+02  0.00000000000E+00 0. -1.
         21    1    1    2  506  504 -0.42907891015E+02 -0.23197130066E+02 -0.12682339775E+03  0.13587997708E+03  0.00000000000E+00 0. -1.
<scales pt_clust_3="54.13633" pt_clust_4="14000.00000" pt_clust_5="90.82924" pt_clust_6="48.77698"></scales>
<clustering>
<clus scale="   48.777">  2  6  1 -1</clus>
<clus scale="   54.136">  2  3  1 -1</clus>
<clus scale="   90.829">  1  5  2 -1</clus>
<clus scale="   90.829">  1  3  2 -1</clus>
</clustering>
</event>
<event>
 6    0  0.1691400E+002  0.1181835E+03  0.7546771E-02  0.1246124E+00
         21   -1    0    0  504  501  0.00000000000E+00  0.00000000000E+00  0.12972468984E+04  0.12972468984E+04  0.00000000000E+00 0.  1.
         21   -1    0    0  506  502 -0.00000000000E+00 -0.00000000000E+00 -0.65575222367E+03  0.65575222367E+03  0.00000000000E+00 0.  1.
         21    1    1    2  503  502  0.45807500582E+02  0.10942481409E+03 -0.64240991512E+03  0.65327070659E+03  0.00000000000E+00 0.  1.
         21    1    1    2  504  503 -0.33526568267E+02 -0.29305836004E+02  0.95919843150E+03  0.96023147928E+03  0.00000000000E+00 0.  1.
         21    1    1    2  505  501 -0.27984717177E+02 -0.22618373268E+02  0.16862440696E+03  0.17242078131E+03  0.00000000000E+00 0.  1.
         21    1    1    2  506  505  0.15703784862E+02 -0.57500604822E+02  0.15608175139E+03  0.16707615489E+03  0.00000000000E+00 0.  1.
<scales pt_clust_3="118.18350" pt_clust_4="14000.00000" pt_clust_5="35.98243" pt_clust_6="61.85895"></scales>
<clustering>
<clus scale="   35.982">  1  5  2 -1</clus>
<clus scale="   61.859">  1  6  2 -1</clus>
<clus scale="  118.183">  2  3  1 -1</clus>
<clus scale="   35.982">  1  3  2 -1</clus>
</clustering>
</event>
<event>
 6    0  0.1555973E+002  0.1675665E+03  0.7546771E-02  0.1180410E+00
         21   -1    0    0  503  501  0.00000000000E+00  0.00000000000E+00  0.36042129842E+03  0.36042129842E+03  0.00000000000E+00 0. -1.
         21   -1    0    0  504  502 -0.00000000000E+00 -0.00000000000E+00 -0.15912509892E+03  0.15912509892E+03  0.00000000000E+00 0. -1.
         21    1    1    2  503  506 -0.49891839115E+02  0.48558785954E+02  0.19239343636E+03  0.20460299523E+03  0.00000000000E+00 0. -1.
         21    1    1    2  504  501  0.12139552914E+02  0.43656482763E+02  0.30955600330E+02  0.54877194024E+02  0.00000000000E+00 0. -1.
         21    1    1    2  505  502  0.84392911412E+02 -0.13459878760E+03 -0.76917641718E+02  0.17650869873E+03  0.00000000000E+00 0. -1.
         21    1    1    2  506  505 -0.46640625212E+02  0.42383518888E+02  0.54864804523E+02  0.83557509350E+02  0.00000000000E+00 0.  1.
<scales pt_clust_3="58.11229" pt_clust_4="45.31288" pt_clust_5="154.16778" pt_clust_6="58.11229"></scales>
<clustering>
<clus scale="   45.313">  1  4  2 -1</clus>
<clus scale="   58.112">  3  6 -1 -1</clus>
<clus scale="  154.168">  2  5  1 -1</clus>
<clus scale="   45.313">  1  3  2 -1</clus>
</clustering>
</event>
<event>
 6    0  0.1595376E+002  0.1104355E+03  0.7546771E-02  0.1259766E+00
         21   -1    0    0  503  501  0.00000000000E+00  0.00000000000E+00  0.24289471378E+03  0.24289471378E+03  0.00000000000E+00 0. -1.
         21   -1    0    0  505  502 -0.00000000000E+00 -0.00000000000E+00 -0.72117359747E+03  0.72117359747E+03  0.00000000000E+00 0. -1.
         21    1    1    2  503  506 -0.11460591547E+02 -0.31547690543E+02 -0.18312057028E+02  0.38235237279E+02  0.00000000000E+00 0. -1.
         21    1    1    2  504  501  0.19938761755E+02 -0.22447028846E+02  0.10420475524E+03  0.10844378423E+03  0.00000000000E+00 0. -1.
         21    1    1    2  505  504  0.92871906767E+02  0.74510059709E+01  0.10419834115E+03  0.13977840625E+03  0.00000000000E+00 0. -1.
         21    1    1    2  506  502 -0.10135007697E+03  0.46543713417E+02 -0.66836992305E+03  0.67761088348E+03  0.00000000000E+00 0. -1.
<scales pt_clust_3="34.66077" pt_clust_4="30.02371" pt_clust_5="110.43546" pt_clust_6="14000.00000"></scales>
<clustering>
<clus scale="   30.024">  1  4  2 -1</clus>
<clus scale="   34.661">  1  3  2 -1</clus>
<clus scale="  110.435">  1  5  2 -1</clus>
<clus scale="   30.024">  1  3  2 -1</clus>
</clustering>
</event>
<event>
 6    0  0.1555973E+002  0.2133015E+03  0.7546771E-02  0.1138978E+00
         21   -1    0    0  504  501  0.00000000000E+00  0.00000000000E+00  0.52203418570E+03  0.52203418570E+03  0.00000000000E+00 0. -1.
         21   -1    0    0  506  502 -0.00000000000E+00 -0.00000000000E+00 -0.52680731974E+03  0.52680731974E+03  0.00000000000E+00 0.  1.
         21    1    1    2  503  502 -0.15341355939E+03  0.15673606350E+03 -0.45592204814E+03  0.50593164340E+03  0.00000000000E+00 0.  1.
         21    1    1    2  504  505  0.37334893538E+02  0.18424328930E+02  0.11690751658E+02  0.43243772342E+02  0.00000000000E+00 0.  1.
         21    1    1    2  505  503  0.56633912499E+02 -0.62418996593E+02  0.72398542231E+02  0.11110841596E+03  0.00000000000E+00 0. -1.
         21    1    1    2  506  501  0.59444753348E+02 -0.11274139584E+03  0.36705962021E+03  0.38855767374E+03  0.00000000000E+00 0. -1.
<scales pt_clust_3="14000.00000" pt_clust_4="41.63352" pt_clust_5="86.72384" pt_clust_6="213.30153"></scales>
<clustering>
<clus scale="   41.634">  1  4  2 -1</clus>
<clus scale="   86.724">  1  5  2 -1</clus>
<clus scale="  213.302">  1  6  2 -1</clus>
<clus scale="   41.634">  1  3  2 -1</clus>
</clustering>
</event>
<event>
 6    0  0.1555973E+002  0.8412089E+02  0.7546771E-02  0.1317748E+00
         21   -1    0    0  503  501  0.00000000000E+00  0.00000000000E+00  0.44439288912E+03  0.44439288912E+03  0.00000000000E+00 0. -1.
         21   -1    0    0  506  502 -0.00000000000E+00 -0.00000000000E+00 -0.60161655053E+03  0.60161655053E+03  0.00000000000E+00 0.  1.
         21    1    1    2  503  505  0.76323468672E+02  0.84317993324E+02 -0.83231121153E+02  0.14093337219E+03  0.00000000000E+00 0.  1.
         21    1    1    2  504  501 -0.68936869134E+02  0.39408626432E+02  0.15738466809E+03  0.17628177873E+03  0.00000000000E+00 0. -1.
         21    1    1    2  505  502 -0.29658224249E+02 -0.19901148877E+02 -0.46803995284E+03  0.46940074930E+03  0.00000000000E+00 0.  1.
         21    1    1    2  506  504  0.22271624712E+02 -0.10382547088E+03  0.23666274449E+03  0.25939353943E+03  0.00000000000E+00 0. -1.
<scales pt_clust_3="14000.00000" pt_clust_4="80.56664" pt_clust_5="35.71647" pt_clust_6="84.12089"></scales>
<clustering>
<clus scale="   35.716">  2  5  1 -1</clus>
<clus scale="   80.567">  1  4  2 -1</clus>
<clus scale="   84.121">  1  6  2 -1</clus>
<clus scale="   80.567">  1  3  2 -1</clus>
</clustering>
</event>
<event>
 6    0  0.1555973E+002  0.9101116E+02  0.7546771E-02  0.1300421E+00
         21   -1    0    0  506  501  0.00000000000E+00  0.00000000000E+00  0.68684422063E+03  0.68684422063E+03  0.00000000000E+00 0.  1.
         21   -1    0    0  503  502 -0.00000000000E+00 -0.00000000000E+00 -0.56846405103E+02  0.56846405103E+02  0.00000000000E+00 0.  1.
         21    1    1    2  503  501 -0.10579197602E+02  0.34563286297E+02  0.69634744318E+02  0.78457235471E+02  0.00000000000E+00 0. -1.
         21    1    1    2  504  502  0.26064411404E+02  0.26172664876E+02 -0.66889274508E+01  0.37538029770E+02  0.00000000000E+00 0.  1.
         21    1    1    2  505  504 -0.21875325190E+02  0.67518020485E+02  0.32725309308E+02  0.78154710745E+02  0.00000000000E+00 0.  1.
         21    1    1    2  506  505  0.63901113883E+01 -0.12825397166E+03  0.53432668935E+03  0.54954064975E+03  0.00000000000E+00 0.  1.
<scales pt_clust_3="36.14609" pt_clust_4="37.37443" pt_clust_5="14000.00000" pt_clust_6="91.01116"></scales>
<clustering>
<clus scale="   36.146">  1  3  2 -1</clus>
<clus scale="   37.374">  2  4  1 -1</clus>
<clus scale="   91.011">  1  6  2 -1</clus>
<clus scale="   36.146">  1  3  2 -1</clus>
</clustering>
</event>
<event>
 6    0  0.1555973E+002  0.1274127E+03  0.7546771E-02  0.1231346E+00
         21   -1    0    0  504  501  0.00000000000E+00  0.00000000000E+00  0.27753178370E+03  0.27753178370E+03  0.00000000000E+00 0.  1.
         21   -1    0    0  503  502 -0.00000000000E+00 -0.00000000000E+00 -0.86449763557E+03  0.86449763557E+03  0.00000000000E+00 0. -1.
         21    1    1    2  503  501  0.30830057929E+02  0.39446865263E+01  0.94102713243E+02  0.99102843871E+02  0.00000000000E+00 0. -1.
         21    1    1    2  504  505  0.54283905326E+01  0.63499581625E+02 -0.54262628601E+01  0.63961774670E+02  0.00000000000E+00 0.  1.
         21    1    1    2  505  506  0.91869983186E+02 -0.76576578164E+02  0.12211776614E+03  0.17092926883E+03  0.00000000000E+00 0.  1.
         21    1    1    2  506  502 -0.12812843165E+03  0.91323100135E+01 -0.79776006840E+03  0.80803553190E+03  0.00000000000E+00 0. -1.
<scales pt_clust_3="31.08139" pt_clust_4="64.97790" pt_clust_5="127.41268" pt_clust_6="14000.00000"></scales>
<clustering>
<clus scale="   31.081">  1  3  2 -1</clus>
<clus scale="   64.978">  1  4  2 -1</clus>
<clus scale="  127.413">  1  5  2 -1</clus>
<clus scale="   31.081">  1  3  2 -1</clus>
</clustering>
</event>
<event>
 6    0  0.1555973E+002  0.1305316E+03  0.7546771E-02  0.1226669E+00
         21   -1    0    0  505  501  0.00000000000E+00  0.00000000000E+00  0.11392887753E+04  0.11392887753E+04  0.00000000000E+00 0.  1.
         21   -1    0    0  506  502 -0.00000000000E+00 -0.00000000000E+00 -0.33801630020E+02  0.33801630020E+02  0.00000000000E+00 0.  1.
         21    1    1    2  503  501 -0.25250888447E+02 -0.56027145778E+02  0.23914163280E+03  0.24691166228E+03  0.00000000000E+00 0.  1.
         21    1    1    2  504  503  0.25806754767E+02 -0.41387827435E+02  0.30510864615E+03  0.30898256715E+03  0.00000000000E+00 0.  1.
         21    1    1    2  505  502 -0.69851577776E+02  0.10372339670E+03  0.13000254708E+03  0.18038416834E+03  0.00000000000E+00 0.  1.
         21    1    1    2  506  504  0.69295711456E+02 -0.63084234882E+01  0.43123431923E+03  0.43681200752E+03  0.00000000000E+00 0.  1.
<scales pt_clust_3="61.45444" pt_clust_4="43.41662" pt_clust_5="119.78864" pt_clust_6="43.41662"></scales>
<clustering>
<clus scale="   43.417">  4  6 -1 -1</clus>
<clus scale="   61.454">  1  3  2 -1</clus>
<clus scale="  119.789">  2  5  1 -1</clus>
<clus scale="   61.454">  1  3  2 -1</clus>
</clustering>
</event>
<event>
 6    0  0.1555973E+002  0.1243564E+03  0.7546771E-02  0.1236079E+00
         21   -1    0    0  506  501  0.00000000000E+00  0.00000000000E+00  0.21319752332E+03  0.21319752332E+03  0.00000000000E+00 0.  1.
         21   -1    0    0  501  502 -0.00000000000E+00 -0.00000000000E+00 -0.64386051549E+03  0.64386051549E+03  0.00000000000E+00 0. -1.
         21    1    1    2  503  505  0.27964718732E+02  0.82152517670E+02 -0.38979563555E+02  0.95133947822E+02  0.00000000000E+00 0.  1.
         21    1    1    2  504  502 -0.39879843858E+02 -0.44907037815E+02 -0.53654316081E+03  0.53989407054E+03  0.00000000000E+00 0. -1.
         21    1    1    2  505  504  0.62210811232E+01  0.61455973009E+02  0.24950327722E+02  0.66618746027E+02  0.00000000000E+00 0.  1.
         21    1    1    2  506  503  0.56940440036E+01 -0.98701452865E+02  0.11990940448E+03  0.15541127442E+03  0.00000000000E+00 0.  1.
<scales pt_clust_3="54.51369" pt_clust_4="60.05867" pt_clust_5="54.51369" pt_clust_6="106.25192"></scales>
<clustering>
<clus scale="   54.514">  3  5 -1 -1</clus>
<clus scale="   60.059">  2  4  1 -1</clus>
<clus scale="  106.252">  1  6  2 -1</clus>
<clus scale="  106.252">  1  3  2 -1</clus>
</clustering>
</event>
<event>
 6    0  0.1555973E+002  0.1446076E+03  0.7546771E-02  0.1207260E+00
         21   -1    0    0  504  501  0.00000000000E+00  0.00000000000E+00  0.39065427612E+02  0.39065427612E+02  0.00000000000E+00 0. -1.
         21   -1    0    0  506  502 -0.00000000000E+00 -0.00000000000E+00 -0.13770399195E+04  0.13770399195E+04  0.00000000000E+00 0. -1.
         21    1    1    2  503  501  0.10171362035E+02 -0.61651449955E+02 -0.83688600490E+02  0.10444204009E+03  0.00000000000E+00 0. -1.
         21    1    1    2  504  502  0.93313538681E+02  0.10352590594E+03 -0.11196666115E+04  0.11283077376E+04  0.00000000000E+00 0. -1.
         21    1    1    2  505  503 -0.49878185801E+02 -0.13098731782E+01 -0.27727750391E+02  0.57082197998E+02  0.00000000000E+00 0. -1.
         21    1    1    2  506  505 -0.53606714915E+02 -0.40564582810E+02 -0.10689152951E+03  0.12627337147E+03  0.00000000000E+00 0. -1.
<scales pt_clust_3="62.48486" pt_clust_4="133.70500" pt_clust_5="47.45656" pt_clust_6="47.45656"></scales>
<clustering>
<clus scale="   47.457">  5  6 -1 -1</clus>
<clus scale="   62.485">  1  3  2 -1</clus>
<clus scale="  133.705">  2  4  1 -1</clus>
<clus scale="   62.485">  1  3  2 -1</clus>
</clustering>
</event>
<event>
 6    0  0.1555973E+002  0.2353488E+03  0.7546771E-02  0.1122931E+00
         21   -1    0    0  504  501  0.00000000000E+00  0.00000000000E+00  0.15398040431E+03  0.15398040431E+03  0.00000000000E+00 0. -1.
         21   -1    0    0  506  502 -0.00000000000E+00 -0.00000000000E+00 -0.78141321596E+03  0.78141321596E+03  0.00000000000E+00 0.  1.
         21    1    1    2  503  501 -0.43212795366E+02  0.48169060684E+02  0.21822995248E+02  0.68292365694E+02  0.00000000000E+00 0. -1.
         21    1    1    2  504  505  0.42692268856E+02  0.99000909432E+01 -0.31741403257E+01  0.43939922480E+02  0.00000000000E+00 0.  1.
         21    1    1    2  505  502  0.16651511819E+03 -0.13954865643E+03 -0.59183916418E+03  0.63045595274E+03  0.00000000000E+00 0.  1.
         21    1    1    2  506  503 -0.16599459168E+03  0.81479504800E+02 -0.54242502393E+02  0.19270537936E+03  0.00000000000E+00 0. -1.
<scales pt_clust_3="47.76786" pt_clust_4="43.82513" pt_clust_5="221.12608" pt_clust_6="47.76786"></scales>
<clustering>
<clus scale="   43.825">  1  4  2 -1</clus>
<clus scale="   47.768">  3  6 -1 -1</clus>
<clus scale="  221.126">  2  5  1 -1</clus>
<clus scale="   43.825">  1  3  2 -1</clus>
</clustering>
</event>
<event>
 6    0  0.1555973E+002  0.9594185E+02  0.7546771E-02  0.1289069E+00
         21   -1    0    0  505  501  0.00000000000E+00  0.00000000000E+00  0.46766370007E+02  0.46766370007E+02  0.00000000000E+00 0.  1.
         21   -1    0    0  504  502 -0.00000000000E+00 -0.00000000000E+00 -0.12240758857E+04  0.12240758857E+04  0.00000000000E+00 0.  1.
         21    1    1    2  503  502 -0.61625690158E+02  0.66510572585E+02 -0.13198459926E+03  0.16012906168E+03  0.00000000000E+00 0.  1.
         21    1    1    2  504  506  0.70320120246E+02 -0.66670310574E+02 -0.94219748484E+03  0.94716732950E+03  0.00000000000E+00 0.  1.
         21    1    1    2  505  503 -0.16263546301E+02 -0.48858249793E+02 -0.10162217740E+03  0.11392409074E+03  0.00000000000E+00 0.  1.
         21    1    1    2  506  501  0.75691162127E+01  0.49017987782E+02 -0.15052542165E+01  0.49621773817E+02  0.00000000000E+00 0.  1.
<scales pt_clust_3="95.94185" pt_clust_4="14000.00000" pt_clust_5="38.31456" pt_clust_6="49.59894"></scales>
<clustering>
<clus scale="   49.599">  1  6  2 -1</clus>
<clus scale="   38.315">  1  5  2 -1</clus>
<clus scale="   95.942">  1  3  2 -1</clus>
<clus scale="   49.599">  1  3  2 -1</clus>
</clustering>
</event>
<event>
 6    0  0.1555973E+002  0.1072614E+03  0.7546771E-02  0.1265727E+00
         21   -1    0    0  504  501  0.00000000000E+00  0.00000000000E+00  0.45210314262E+03  0.45210314262E+03  0.00000000000E+00 0. -1.
         21   -1    0    0  505  502 -0.00000000000E+00 -0.00000000000E+00 -0.13589366018E+03  0.13589366018E+03  0.00000000000E+00 0. -1.
         21    1    1    2  503  501  0.26581132760E+02  0.60477980369E+02  0.12086961550E+03  0.13774471561E+03  0.00000000000E+00 0. -1.
         21    1    1    2  504  506  0.18941146500E+02 -0.32645241270E+02  0.38825514512E+02  0.54147016404E+02  0.00000000000E+00 0. -1.
         21    1    1    2  505  503 -0.10466912156E+03 -0.41056298421E+02 -0.88890200242E+02  0.14332729101E+03  0.00000000000E+00 0. -1.
         21    1    1    2  506  502  0.59146842304E+02  0.13223559322E+02  0.24540455267E+03  0.25277777977E+03  0.00000000000E+00 0. -1.
<scales pt_clust_3="59.75890" pt_clust_4="37.74227" pt_clust_5="107.26140" pt_clust_6="14000.00000"></scales>
<clustering>
<clus scale="   37.742">  1  4  2 -1</clus>
<clus scale="   59.759">  1  3  2 -1</clus>
<clus scale="  107.261">  2  5  1 -1</clus>
<clus scale="   37.742">  1  3  2 -1</clus>
</clustering>
</event>
<event>
 6    0  0.1555973E+002  0.1104057E+03  0.7546771E-02  0.1259820E+00
         21   -1    0    0  505  501  0.00000000000E+00  0.00000000000E+00  0.91414858262E+03  0.91414858262E+03  0.00000000000E+00 0. -1.
         21   -1    0    0  503  502 -0.00000000000E+00 -0.00000000000E+00 -0.83046910301E+02  0.83046910301E+02  0.00000000000E+00 0. -1.
         21    1    1    2  503  501 -0.11008487658E+03  0.66261649610E+02  0.23733009787E+03  0.26987934641E+03  0.00000000000E+00 0. -1.
         21    1    1    2  504  502 -0.14882686888E+02 -0.34476741179E+02 -0.50423826806E+02  0.62870520605E+02  0.00000000000E+00 0. -1.
         21    1    1    2  505  506  0.34993613091E+02 -0.23654786538E+01  0.41488451767E+03  0.41636439743E+03  0.00000000000E+00 0. -1.
         21    1    1    2  506  504  0.89973950373E+02 -0.29419429778E+02  0.22931088358E+03  0.24808122848E+03  0.00000000000E+00 0. -1.
<scales pt_clust_3="110.40567" pt_clust_4="37.40809" pt_clust_5="35.07347" pt_clust_6="14000.00000"></scales>
<clustering>
<clus scale="   35.073">  1  5  2 -1</clus>
<clus scale="   37.408">  2  4  1 -1</clus>
<clus scale="  110.406">  1  3  2 -1</clus>
<clus scale="   35.073">  1  3  2 -1</clus>
</clustering>
</event>
<event>
 6    0  0.1555973E+002  0.7761244E+02  0.7546771E-02  0.1335967E+00
         21   -1    0    0  503  501  0.00000000000E+00  0.00000000000E+00  0.13161889289E+03  0.13161889289E+03  0.00000000000E+00 0.  1.
         21   -1    0    0  504  502 -0.00000000000E+00 -0.00000000000E+00 -0.32272279666E+03  0.32272279666E+03  0.00000000000E+00 0. -1.
         21    1    1    2  503  505 -0.36775205655E+02 -0.42682622915E+02  0.68855913522E+02  0.88968302652E+02  0.00000000000E+00 0.  1.
         21    1    1    2  504  501  0.33182588695E+01 -0.33840544121E+02 -0.20925633321E+02  0.39925873794E+02  0.00000000000E+00 0.  1.
         21    1    1    2  505  506  0.74180641067E+02  0.10458593255E+03 -0.63510553534E+02  0.14308939585E+03  0.00000000000E+00 0. -1.
         21    1    1    2  506  502 -0.40723694282E+02 -0.28062765511E+02 -0.17552363044E+03  0.18235811725E+03  0.00000000000E+00 0. -1.
<scales pt_clust_3="57.15401" pt_clust_4="34.00284" pt_clust_5="14000.00000" pt_clust_6="77.61244"></scales>
<clustering>
<clus scale="   34.003">  2  4  1 -1</clus>
<clus scale="   57.154">  1  3  2 -1</clus>
<clus scale="   77.612">  2  6  1 -1</clus>
<clus scale="   57.154">  1  3  2 -1</clus>
</clustering>
</event>
<event>
 6    0  0.1555973E+002  0.2187072E+03  0.7546771E-02  0.1134851E+00
         21   -1    0    0  504  501  0.00000000000E+00  0.00000000000E+00  0.33313950165E+04  0.33313950165E+04  0.00000000000E+00 0.  1.
         21   -1    0    0  501  502 -0.00000000000E+00 -0.00000000000E+00 -0.17216349701E+03  0.17216349701E+03  0.00000000000E+00 0.  1.
         21    1    1    2  503  502 -0.12883524900E+02 -0.95426094491E+02 -0.13239748515E+03  0.16371077789E+03  0.00000000000E+00 0.  1.
         21    1    1    2  504  506 -0.57024848899E+02  0.12909074064E+03  0.18440880562E+04  0.18494802004E+04  0.00000000000E+00 0.  1.
         21    1    1    2  505  503  0.14609044297E+03 -0.80183228068E+02  0.33411443586E+03  0.37336875048E+03  0.00000000000E+00 0.  1.
         21    1    1    2  506  505 -0.76182069171E+02  0.46518581917E+02  0.11134265126E+04  0.11169987847E+04  0.00000000000E+00 0.  1.
<scales pt_clust_3="96.29187" pt_clust_4="53.48315" pt_clust_5="208.11151" pt_clust_6="53.48315"></scales>
<clustering>
<clus scale="   53.483">  4  6 -1 -1</clus>
<clus scale="   96.292">  2  3  1 -1</clus>
<clus scale="  208.112">  2  5  1 -1</clus>
<clus scale="  218.707">  1  3  2 -1</clus>
</clustering>
</event>
<event>
 6    0  0.1555973E+002  0.1387741E+03  0.7546771E-02  0.1214988E+00
         21   -1    0    0  503  501  0.00000000000E+00  0.00000000000E+00  0.24480216678E+04  0.24480216678E+04  0.00000000000E+00 0.  1.
         21   -1    0    0  504  502 -0.00000000000E+00 -0.00000000000E+00 -0.39997278080E+02  0.39997278080E+02  0.00000000000E+00 0. -1.
         21    1    1    2  503  502  0.46903708587E+02  0.52362385316E+02  0.44432886466E+03  0.44985544038E+03  0.00000000000E+00 0.  1.
         21    1    1    2  504  505 -0.34480300092E+01  0.13793860914E+03  0.15065629727E+03  0.20429456358E+03  0.00000000000E+00 0. -1.
         21    1    1    2  505  506  0.63694970983E+02 -0.14070687685E+03  0.11606055838E+04  0.11708376470E+04  0.00000000000E+00 0.  1.
         21    1    1    2  506  501 -0.10715064956E+03 -0.49594117607E+02  0.65243364401E+03  0.66303129492E+03  0.00000000000E+00 0. -1.
<scales pt_clust_3="70.29778" pt_clust_4="138.77411" pt_clust_5="14000.00000" pt_clust_6="97.28046"></scales>
<clustering>
<clus scale="   70.298">  1  3  2 -1</clus>
<clus scale="   97.280">  1  6  2 -1</clus>
<clus scale="  138.774">  2  4  1 -1</clus>
<clus scale="   70.298">  1  3  2 -1</clus>
</clustering>
</event>
<event>
 6    0  0.1555973E+002  0.1843351E+03  0.7546771E-02  0.1163672E+00
         21   -1    0    0  506  501  0.00000000000E+00  0.00000000000E+00  0.10384637323E+04  0.10384637323E+04  0.00000000000E+00 0.  1.
         21   -1    0    0  504  502 -0.00000000000E+00 -0.00000000000E+00 -0.22199865769E+03  0.22199865769E+03  0.00000000000E+00 0. -1.
         21    1    1    2  503  501  0.25777428865E+01 -0.71830070754E+02 -0.36634377864E+02  0.80673920596E+02  0.00000000000E+00 0. -1.
         21    1    1    2  504  503  0.10753211063E+02 -0.68199164112E+02 -0.13034503435E+03  0.14750113733E+03  0.00000000000E+00 0. -1.
         21    1    1    2  505  502 -0.31749924529E+02 -0.32314278910E+02  0.13920874217E+02  0.47392626726E+02  0.00000000000E+00 0. -1.
         21    1    1    2  506  505  0.18418970579E+02  0.17234351378E+03  0.96952361259E+03  0.98489470533E+03  0.00000000000E+00 0.  1.
<scales pt_clust_3="62.77811" pt_clust_4="62.77811" pt_clust_5="45.30199" pt_clust_6="171.99879"></scales>
<clustering>
<clus scale="   45.302">  2  5  1 -1</clus>
<clus scale="   62.778">  3  4 -1 -1</clus>
<clus scale="  171.999">  1  6  2 -1</clus>
<clus scale="  171.999">  1  3  2 -1</clus>
</clustering>
</event>
<event>
 6    0  0.1555973E+002  0.2782039E+03  0.7546771E-02  0.1096674E+00
         21   -1    0    0  506  501  0.00000000000E+00  0.00000000000E+00  0.15571255828E+04  0.15571255828E+04  0.00000000000E+00 0. -1.
         21   -1    0    0  501  502 -0.00000000000E+00 -0.00000000000E+00 -0.18172047017E+03  0.18172047017E+03  0.00000000000E+00 0.  1.
         21    1    1    2  503  505 -0.50545710713E+02 -0.50735828803E+01  0.24735649839E+03  0.25251900406E+03  0.00000000000E+00 0.  1.
         21    1    1    2  504  502 -0.83211893104E+01  0.37814737191E+02 -0.95945124263E+02  0.10346334332E+03  0.00000000000E+00 0.  1.
         21    1    1    2  505  504  0.25116939074E+03 -0.14565454819E+03  0.24839060589E+03  0.38209842102E+03  0.00000000000E+00 0.  1.
         21    1    1    2  506  503 -0.19230249072E+03  0.11291339387E+03  0.97560313263E+03  0.10007652846E+04  0.00000000000E+00 0. -1.
<scales pt_clust_3="31.96938" pt_clust_4="38.71946" pt_clust_5="270.02009" pt_clust_6="31.96938"></scales>
<clustering>
<clus scale="   31.969">  3  6 -1 -1</clus>
<clus scale="   38.719">  2  4  1 -1</clus>
<clus scale="  270.020">  2  5  1 -1</clus>
<clus scale="  278.204">  1  3  2 -1</clus>
</clustering>
</event>
<event>
 6    0  0.1555973E+002  0.1218734E+03  0.7546771E-02  0.1240038E+00
         21   -1    0    0  504  501  0.00000000000E+00  0.00000000000E+00  0.37997868875E+03  0.37997868875E+03  0.00000000000E+00 0. -1.
         21   -1    0    0  503  502 -0.00000000000E+00 -0.00000000000E+00 -0.64759713485E+02  0.64759713485E+02  0.00000000000E+00 0.  1.
         21    1    1    2  503  506  0.36801768969E+02  0.85421941227E+01  0.32670552171E+02  0.49947014514E+02  0.00000000000E+00 0.  1.
         21    1    1    2  504  505 -0.10567868638E+03  0.23334025207E+02  0.75309425850E+02  0.13184828823E+03  0.00000000000E+00 0.  1.
         21    1    1    2  505  502 -0.68274496188E+01 -0.43081846482E+02  0.17372647346E+01  0.43654068005E+02  0.00000000000E+00 0. -1.
         21    1    1    2  506  501  0.75704367026E+02  0.11205627152E+02  0.20550173251E+03  0.21928903149E+03  0.00000000000E+00 0. -1.
<scales pt_clust_3="36.60627" pt_clust_4="110.17589" pt_clust_5="43.61949" pt_clust_6="36.60627"></scales>
<clustering>
<clus scale="   36.606">  3  6 -1 -1</clus>
<clus scale="   43.619">  2  5  1 -1</clus>
<clus scale="  110.176">  2  4  1 -1</clus>
<clus scale="  121.873">  1  3  2 -1</clus>
</clustering>
</event>
<event>
 6    0  0.1555973E+002  0.1301838E+03  0.7546771E-02  0.1227183E+00
         21   -1    0    0  504  501  0.00000000000E+00  0.00000000000E+00  0.17526307190E+04  0.17526307190E+04  0.00000000000E+00 0.  1.
         21   -1    0    0  503  502 -0.00000000000E+00 -0.00000000000E+00 -0.53077409516E+02  0.53077409516E+02  0.00000000000E+00 0.  1.
         21    1    1    2  503  501  0.10585609348E+03  0.28674000747E+02  0.67030546510E+03  0.67921802641E+03  0.00000000000E+00 0.  1.
         21    1    1    2  504  506 -0.16971862400E+03  0.68059554989E+01  0.92700302325E+03  0.94243585324E+03  0.00000000000E+00 0.  1.
         21    1    1    2  505  502 -0.19469395437E+02  0.25302722697E+02  0.68425312550E+02  0.75507009821E+02  0.00000000000E+00 0.  1.
         21    1    1    2  506  505  0.83331925948E+02 -0.60782678943E+02  0.33819508563E+02  0.10854723903E+03  0.00000000000E+00 0.  1.
<scales pt_clust_3="130.18379" pt_clust_4="14000.00000" pt_clust_5="31.92625" pt_clust_6="80.31857"></scales>
<clustering>
<clus scale="   31.926">  2  5  1 -1</clus>
<clus scale="   80.319">  2  6  1 -1</clus>
<clus scale="  130.184">  1  3  2 -1</clus>
<clus scale="  130.184">  1  3  2 -1</clus>
</clustering>
</event>
<event>
 6    0  0.1555973E+002  0.1125544E+03  0.7546771E-02  0.1255911E+00
         21   -1    0    0  505  501  0.00000000000E+00  0.00000000000E+00  0.92231448978E+02  0.92231448978E+02  0.00000000000E+00 0.  1.
         21   -1    0    0  504  502 -0.00000000000E+00 -0.00000000000E+00 -0.34792214253E+03  0.34792214253E+03  0.00000000000E+00 0.  1.
         21    1    1    2  503  502  0.30328361901E+02 -0.47516237913E+02 -0.10001012925E+02  0.57250525417E+02  0.00000000000E+00 0.  1.
         21    1    1    2  504  501 -0.63493637017E+02  0.91109976752E+02 -0.26917135687E+03  0.29117982273E+03  0.00000000000E+00 0.  1.
         21    1    1    2  505  506  0.37551490406E+02  0.21229662872E+01  0.26006896024E+02  0.45727235412E+02  0.00000000000E+00 0.  1.
         21    1    1    2  506  503 -0.43862152904E+01 -0.45716705126E+02 -0.25252197776E+01  0.45996007947E+02  0.00000000000E+00 0. -1.
<scales pt_clust_3="30.44355" pt_clust_4="107.38217" pt_clust_5="37.61145" pt_clust_6="30.44355"></scales>
<clustering>
<clus scale="   30.444">  3  6 -1 -1</clus>
<clus scale="   37.611">  1  5  2 -1</clus>
<clus scale="  107.382">  2  4  1 -1</clus>
<clus scale="   37.611">  1  3  2 -1</clus>
</clustering>
</event>
<event>
 6    0  0.1555973E+002  0.2026278E+03  0.7546771E-02  0.1147541E+00
         21   -1    0    0  504  501  0.00000000000E+00  0.00000000000E+00  0.12990643845E+04  0.12990643845E+04  0.00000000000E+00 0.  1.
         21   -1    0    0  505  502 -0.00000000000E+00 -0.00000000000E+00 -0.74272006202E+02  0.74272006202E+02  0.00000000000E+00 0. -1.
         21    1    1    2  503  502  0.61229727977E+02 -0.30204440268E+00 -0.87216026879E+01  0.61848501780E+02  0.00000000000E+00 0. -1.
         21    1    1    2  504  506  0.38150763272E+02  0.11600194895E+03  0.54476392449E+03  0.55828278347E+03  0.00000000000E+00 0.  1.
         21    1    1    2  505  501 -0.16442699286E+03 -0.14339922652E+03  0.39687809511E+03  0.45289269869E+03  0.00000000000E+00 0. -1.
         21    1    1    2  506  503  0.65046501616E+02  0.27699321968E+02  0.29187196139E+03  0.30031240676E+03  0.00000000000E+00 0.  1.
<scales pt_clust_3="61.23047" pt_clust_4="58.57554" pt_clust_5="187.43439" pt_clust_6="58.57554"></scales>
<clustering>
<clus scale="   58.576">  4  6 -1 -1</clus>
<clus scale="   61.230">  2  3  1 -1</clus>
<clus scale="  187.434">  2  5  1 -1</clus>
<clus scale="  202.628">  1  3  2 -1</clus>
</clustering>
</event>
<event>
 6    0  0.1555973E+002  0.1282298E+03  0.7546771E-02  0.1230106E+00
         21   -1    0    0  504  501  0.00000000000E+00  0.00000000000E+00  0.92197101681E+02  0.92197101681E+02  0.00000000000E+00 0.  1.
         21   -1    0    0  503  502 -0.00000000000E+00 -0.00000000000E+00 -0.16018346127E+04  0.16018346127E+04  0.00000000000E+00 0.  1.
         21    1    1    2  503  505  0.40604838625E+02  0.55346764759E+02 -0.30323589051E+03  0.31090838295E+03  0.00000000000E+00 0.  1.
         21    1    1    2  504  506 -0.58631652733E+02 -0.10355866686E+03  0.37303213077E+02  0.12471406453E+03  0.00000000000E+00 0.  1.
         21    1    1    2  505  501  0.58845005397E+02  0.42191385269E+02 -0.18159487315E+03  0.19549819847E+03  0.00000000000E+00 0.  1.
         21    1    1    2  506  502 -0.40818191290E+02  0.60205168342E+01 -0.10621099604E+04  0.10629110684E+04  0.00000000000E+00 0.  1.
<scales pt_clust_3="43.97396" pt_clust_4="120.25008" pt_clust_5="43.97396" pt_clust_6="41.25980"></scales>
<clustering>
<clus scale="   41.260">  2  6  1 -1</clus>
<clus scale="   43.974">  3  5 -1 -1</clus>
<clus scale="  120.250">  1  4  2 -1</clus>
<clus scale="  120.250">  1  3  2 -1</clus>
</clustering>
</event>
<event>
 6    0  0.1555973E+002  0.1509547E+03  0.7546771E-02  0.1199305E+00
         21   -1    0    0  506  501  0.00000000000E+00  0.00000000000E+00  0.68354473937E+02  0.68354473937E+02  0.00000000000E+00 0.  1.
         21   -1    0    0  501  502 -0.00000000000E+00 -0.00000000000E+00 -0.16969505669E+04  0.16969505669E+04  0.00000000000E+00 0.  1.
         21    1    1    2  503  505 -0.16647754178E+02 -0.16604656101E+03 -0.13341155183E+03  0.21365217131E+03  0.00000000000E+00 0.  1.
         21    1    1    2  504  503 -0.41038240847E+01  0.67720193867E+02 -0.48964634679E+02  0.83668401914E+02  0.00000000000E+00 0.  1.
         21    1    1    2  505  502  0.48107391706E+01  0.37672688960E+02 -0.13642363388E+04  0.13647648746E+04  0.00000000000E+00 0.  1.
         21    1    1    2  506  504  0.15940839092E+02  0.60653678184E+02 -0.81983567679E+02  0.10321959309E+03  0.00000000000E+00 0.  1.
<scales pt_clust_3="147.06324" pt_clust_4="32.74167" pt_clust_5="37.97861" pt_clust_6="32.74167"></scales>
<clustering>
<clus scale="   32.742">  4  6 -1 -1</clus>
<clus scale="   37.979">  2  5  1 -1</clus>
<clus scale="  147.063">  2  3  1 -1</clus>
<clus scale="  150.955">  1  3  2 -1</clus>
</clustering>
</event>
<event>
 6    0  0.1555973E+002  0.2331609E+03  0.7546771E-02  0.1124435E+00
         21   -1    0    0  506  501  0.00000000000E+00  0.00000000000E+00  0.13252042793E+04  0.13252042793E+04  0.00000000000E+00 0.  1.
         21   -1    0    0  504  502 -0.00000000000E+00 -0.00000000000E+00 -0.52214137891E+02  0.52214137891E+02  0.00000000000E+00 0.  1.
         21    1    1    2  503  501  0.47273366315E+02 -0.65895042150E+02  0.36543557853E+03  0.37432618103E+03  0.00000000000E+00 0.  1.
         21    1    1    2  504  505  0.10172933699E+02 -0.12092512618E+03  0.52762837976E+03  0.54140380664E+03  0.00000000000E+00 0.  1.
         21    1    1    2  505  503 -0.24861819733E+02 -0.17844943955E+02  0.14596486422E+03  0.14913850506E+03  0.00000000000E+00 0.  1.
         21    1    1    2  506  502 -0.32584480281E+02  0.20466511228E+03  0.23396131891E+03  0.31254992447E+03  0.00000000000E+00 0.  1.
<scales pt_clust_3="57.77631" pt_clust_4="57.77631" pt_clust_5="30.33069" pt_clust_6="207.24275"></scales>
<clustering>
<clus scale="   30.331">  4  5 -1 -1</clus>
<clus scale="   57.776">  3  4 -1 -1</clus>
<clus scale="  207.243">  2  6  1 -1</clus>
<clus scale="  233.161">  1  3  2 -1</clus>
</clustering>
</event>
<event>
 6    0  0.1555973E+002  0.4102118E+03  0.7546771E-02  0.1040300E+00
         21   -1    0    0  502  501  0.00000000000E+00  0.00000000000E+00  0.13675567953E+04  0.13675567953E+04  0.00000000000E+00 0. -1.
         21   -1    0    0  503  502 -0.00000000000E+00 -0.00000000000E+00 -0.72029417228E+03  0.72029417228E+03  0.00000000000E+00 0. -1.
         21    1    1    2  503  506  0.11223403788E+03 -0.39565311854E+03 -0.56083838200E+03  0.69546930931E+03  0.00000000000E+00 0. -1.
         21    1    1    2  504  505  0.35662576964E+02  0.56043839594E+02  0.74744694526E+03  0.75039300858E+03  0.00000000000E+00 0. -1.
         21    1    1    2  505  501  0.16003342523E+02 -0.32035844680E+02  0.69005067297E+02  0.77743820519E+02  0.00000000000E+00 0.  1.
         21    1    1    2  506  504 -0.16389995736E+03  0.37164512362E+03  0.39164899247E+03  0.56424482917E+03  0.00000000000E+00 0. -1.
<scales pt_clust_3="14000.00000" pt_clust_4="58.52144" pt_clust_5="35.81065" pt_clust_6="410.21181"></scales>
<clustering>
<clus scale="   35.811">  1  5  2 -1</clus>
<clus scale="   58.521">  1  4  2 -1</clus>
<clus scale="  410.212">  1  6  2 -1</clus>
<clus scale="   35.811">  1  3  2 -1</clus>
</clustering>
</event>
<event>
 6    0  0.1555973E+002  0.1065470E+03  0.7546771E-02  0.1267101E+00
         21   -1    0    0  506  501  0.00000000000E+00  0.00000000000E+00  0.21417950988E+03  0.21417950988E+03  0.00000000000E+00 0.  1.
         21   -1    0    0  504  502 -0.00000000000E+00 -0.00000000000E+00 -0.10455934542E+03  0.10455934542E+03  0.00000000000E+00 0. -1.
         21    1    1    2  503  502 -0.37339898606E+02  0.42231853840E+02  0.48655441971E+02  0.74465760857E+02  0.00000000000E+00 0.  1.
         21    1    1    2  504  505 -0.38130329745E+02  0.20929293608E+02 -0.37367706481E+02  0.57343725594E+02  0.00000000000E+00 0. -1.
         21    1    1    2  505  501  0.70947064785E+02 -0.99579093569E+02  0.74744463315E+02  0.14330462893E+03  0.00000000000E+00 0. -1.
         21    1    1    2  506  503  0.45231635660E+01  0.36417946120E+02  0.23587965658E+02  0.43624739909E+02  0.00000000000E+00 0.  1.
<scales pt_clust_3="30.86659" pt_clust_4="43.49664" pt_clust_5="99.44214" pt_clust_6="30.86659"></scales>
<clustering>
<clus scale="   30.867">  3  6 -1 -1</clus>
<clus scale="   43.497">  2  4  1 -1</clus>
<clus scale="   99.442">  2  5  1 -1</clus>
<clus scale="  106.547">  1  3  2 -1</clus>
</clustering>
</event>
<event>
 6    0  0.1555973E+002  0.1357622E+03  0.7546771E-02  0.1219148E+00
         21   -1    0    0  506  501  0.00000000000E+00  0.00000000000E+00  0.44011269875E+03  0.44011269875E+03  0.00000000000E+00 0. -1.
         21   -1    0    0  503  502 -0.00000000000E+00 -0.00000000000E+00 -0.30160821413E+03  0.30160821413E+03  0.00000000000E+00 0. -1.
         21    1    1    2  503  504 -0.12043808641E+02  0.32361067154E+02  0.47060960938E+01  0.34848806786E+02  0.00000000000E+00 0.  1.
         21    1    1    2  504  501 -0.24673037907E+02 -0.44379238057E+02  0.83910796536E+02  0.98078016627E+02  0.00000000000E+00 0.  1.
         21    1    1    2  505  502  0.14484396912E+03 -0.60843427488E+02 -0.24233420236E+03  0.28880367673E+03  0.00000000000E+00 0. -1.
         21    1    1    2  506  505 -0.10812712257E+03  0.72861598391E+02  0.29222179435E+03  0.31999041274E+03  0.00000000000E+00 0. -1.
<scales pt_clust_3="34.52958" pt_clust_4="50.22637" pt_clust_5="135.76223" pt_clust_6="14000.00000"></scales>
<clustering>
<clus scale="   34.530">  2  3  1 -1</clus>
<clus scale="   50.226">  1  4  2 -1</clus>
<clus scale="  135.762">  2  5  1 -1</clus>
<clus scale="   50.226">  1  3  2 -1</clus>
</clustering>
</event>
<event>
 6    0  0.1555973E+002  0.1151032E+03  0.7546771E-02  0.1251401E+00
         21   -1    0    0  505  501  0.00000000000E+00  0.00000000000E+00  0.11417442474E+04  0.11417442474E+04  0.00000000000E+00 0.  1.
         21   -1    0    0  504  502 -0.00000000000E+00 -0.00000000000E+00 -0.18204552250E+03  0.18204552250E+03  0.00000000000E+00 0.  1.
         21    1    1    2  503  501 -0.32211532458E+02  0.39329049326E+01  0.70904079684E+02  0.77977170250E+02  0.00000000000E+00 0.  1.
         21    1    1    2  504  503 -0.24826240798E+02 -0.11409153726E+03 -0.15196395037E+03  0.19164097505E+03  0.00000000000E+00 0.  1.
         21    1    1    2  505  506  0.79533248989E+02  0.39020497728E+02  0.44269159542E+03  0.45146869836E+03  0.00000000000E+00 0.  1.
         21    1    1    2  506  502 -0.22495475732E+02  0.71138134603E+02  0.59806700018E+03  0.60270292626E+03  0.00000000000E+00 0.  1.
<scales pt_clust_3="32.45074" pt_clust_4="14000.00000" pt_clust_5="77.55769" pt_clust_6="115.10318"></scales>
<clustering>
<clus scale="   32.451">  1  3  2 -1</clus>
<clus scale="   77.558">  1  5  2 -1</clus>
<clus scale="  115.103">  1  6  2 -1</clus>
<clus scale="   32.451">  1  3  2 -1</clus>
</clustering>
</event>
<event>
 6    0  0.1555973E+002  0.1255578E+03  0.7546771E-02  0.1234200E+00
         21   -1    0    0  504  501  0.00000000000E+00  0.00000000000E+00  0.35684907448E+03  0.35684907448E+03  0.00000000000E+00 0. -1.
         21   -1    0    0  506  502 -0.00000000000E+00 -0.00000000000E+00 -0.28658338200E+03  0.28658338200E+03  0.00000000000E+00 0.  1.
         21    1    1    2  503  501 -0.14725098290E+02  0.34867152283E+02  0.14455020372E+03  0.14942325195E+03  0.00000000000E+00 0. -1.
         21    1    1    2  504  502 -0.29363431506E+02  0.74158787703E+01  0.13064617889E+02  0.32983186752E+02  0.00000000000E+00 0.  1.
         21    1    1    2  505  503  0.38282912870E+02  0.69614300822E+02  0.16598534766E+03  0.18401866192E+03  0.00000000000E+00 0. -1.
         21    1    1    2  506  505  0.58056169256E+01 -0.11189733188E+03 -0.25333447679E+03  0.27700735586E+03  0.00000000000E+00 0.  1.
<scales pt_clust_3="44.79796" pt_clust_4="30.28542" pt_clust_5="44.79796" pt_clust_6="111.73601"></scales>
<clustering>
<clus scale="   30.285">  1  4  2 -1</clus>
<clus scale="   44.798">  3  5 -1 -1</clus>
<clus scale="  111.736">  2  6  1 -1</clus>
<clus scale="   30.285">  1  3  2 -1</clus>
</clustering>
</event>
<event>
 6    0  0.1555973E+002  0.1000476E+03  0.7546771E-02  0.1280196E+00
         21   -1    0    0  503  501  0.00000000000E+00  0.00000000000E+00  0.10605395635E+03  0.10605395635E+03  0.00000000000E+00 0.  1.
         21   -1    0    0  505  502 -0.00000000000E+00 -0.00000000000E+00 -0.27894248869E+03  0.27894248869E+03  0.00000000000E+00 0.  1.
         21    1    1    2  503  502  0.84698588882E+02 -0.10762096572E+02  0.13405956887E+02  0.86425652218E+02  0.00000000000E+00 0.  1.
         21    1    1    2  504  506 -0.53078964868E+02  0.20736993439E+02 -0.19462450158E+02  0.60217824392E+02  0.00000000000E+00 0.  1.
         21    1    1    2  505  504 -0.27325404819E+01 -0.61076657551E+02 -0.16889021495E+03  0.17961550485E+03  0.00000000000E+00 0.  1.
         21    1    1    2  506  501 -0.28887083532E+02  0.51101760685E+02  0.20581758922E+01  0.58737463582E+02  0.00000000000E+00 0.  1.
<scales pt_clust_3="89.67338" pt_clust_4="43.71150" pt_clust_5="61.13775" pt_clust_6="43.71150"></scales>
<clustering>
<clus scale="   43.711">  4  6 -1 -1</clus>
<clus scale="   61.138">  2  5  1 -1</clus>
<clus scale="   89.673">  1  3  2 -1</clus>
<clus scale="   89.673">  1  3  2 -1</clus>
</clustering>
</event>
<event>
 6    0  0.1555973E+002  0.9090750E+02  0.7546771E-02  0.1300669E+00
         21   -1    0    0  504  501  0.00000000000E+00  0.00000000000E+00  0.51051938307E+03  0.51051938307E+03  0.00000000000E+00 0. -1.
         21   -1    0    0  505  502 -0.00000000000E+00 -0.00000000000E+00 -0.55879823551E+02  0.55879823551E+02  0.00000000000E+00 0. -1.
         21    1    1    2  503  506  0.44696088671E+02 -0.46944207664E+01  0.10208228245E+03  0.11153730461E+03  0.00000000000E+00 0. -1.
         21    1    1    2  504  502 -0.31074492015E+02  0.85431546341E+02  0.84484871426E+02  0.12410425724E+03  0.00000000000E+00 0. -1.
         21    1    1    2  505  503 -0.52652803316E+02 -0.94800868062E+02  0.71585425694E+02  0.12993842947E+03  0.00000000000E+00 0. -1.
         21    1    1    2  506  501  0.39031206659E+02  0.14063742488E+02  0.19648697995E+03  0.20081921531E+03  0.00000000000E+00 0. -1.
<scales pt_clust_3="34.97298" pt_clust_4="90.90750" pt_clust_5="81.92291" pt_clust_6="34.97298"></scales>
<clustering>
<clus scale="   34.973">  3  6 -1 -1</clus>
<clus scale="   90.907">  2  4  1 -1</clus>
<clus scale="   81.923">  2  5  1 -1</clus>
<clus scale="   90.907">  1  3  2 -1</clus>
</clustering>
</event>
<event>
 6    0  0.1555973E+002  0.1373083E+03  0.7546771E-02  0.1216997E+00
         21   -1    0    0  504  501  0.00000000000E+00  0.00000000000E+00  0.87201657586E+03  0.87201657586E+03  0.00000000000E+00 0. -1.
         21   -1    0    0  506  502 -0.00000000000E+00 -0.00000000000E+00 -0.73236713149E+02  0.73236713149E+02  0.00000000000E+00 0. -1.
         21    1    1    2  503  502 -0.20589205793E+02  0.37857720902E+02 -0.44002032062E+02  0.61589782048E+02  0.00000000000E+00 0. -1.
         21    1    1    2  504  503 -0.42940911399E+02  0.95894517620E+02  0.28789781562E+03  0.30647158534E+03  0.00000000000E+00 0. -1.
         21    1    1    2  505  501  0.49929662849E+00 -0.66611538492E+02  0.24770182128E+03  0.25650251192E+03  0.00000000000E+00 0. -1.
         21    1    1    2  506  505  0.63030820563E+02 -0.67140700030E+02  0.30718225787E+03  0.32068940970E+03  0.00000000000E+00 0. -1.
<scales pt_clust_3="43.09434" pt_clust_4="124.59993" pt_clust_5="49.87609" pt_clust_6="49.87609"></scales>
<clustering>
<clus scale="   43.094">  2  3  1 -1</clus>
<clus scale="   49.876">  5  6 -1 -1</clus>
<clus scale="  124.600">  1  4  2 -1</clus>
<clus scale="  124.600">  1  3  2 -1</clus>
</clustering>
</event>
<event>
 6    0  0.1555973E+002  0.1527543E+03  0.7546771E-02  0.1197129E+00
         21   -1    0    0  506  501  0.00000000000E+00  0.00000000000E+00  0.24664814410E+03  0.24664814410E+03  0.00000000000E+00 0. -1.
         21   -1    0    0  503  502 -0.00000000000E+00 -0.00000000000E+00 -0.25247073018E+04  0.25247073018E+04  0.00000000000E+00 0. -1.
         21    1    1    2  503  505 -0.36521647020E+02 -0.19687789186E+02 -0.22388676453E+04  0.22392520566E+04  0.00000000000E+00 0. -1.
         21    1    1    2  504  502  0.10768186725E+03  0.10082805861E+03 -0.77385564544E+02  0.16658393541E+03  0.00000000000E+00 0. -1.
         21    1    1    2  505  501 -0.20393015943E+03 -0.84369580463E+02 -0.17754053102E+02  0.22140673529E+03  0.00000000000E+00 0. -1.
         21    1    1    2  506  504  0.13276993920E+03  0.32293110354E+01  0.55948105194E+02  0.14411271866E+03  0.00000000000E+00 0. -1.
<scales pt_clust_3="41.49024" pt_clust_4="14000.00000" pt_clust_5="152.75432" pt_clust_6="127.13391"></scales>
<clustering>
<clus scale="   41.490">  2  3  1 -1</clus>
<clus scale="  127.134">  1  6  2 -1</clus>
<clus scale="  152.754">  1  5  2 -1</clus>
<clus scale="  127.134">  1  3  2 -1</clus>
</clustering>
</event>
<event>
 6    0  0.1555973E+002  0.1162621E+03  0.7546771E-02  0.1249394E+00
         21   -1    0    0  504  501  0.00000000000E+00  0.00000000000E+00  0.48820460371E+02  0.48820460371E+02  0.00000000000E+00 0. -1.
         21   -1    0    0  505  502 -0.00000000000E+00 -0.00000000000E+00 -0.16071690453E+04  0.16071690453E+04  0.00000000000E+00 0. -1.
         21    1    1    2  503  501 -0.45347097633E+02 -0.94726550285E+02 -0.14770650960E+03  0.18123656246E+03  0.00000000000E+00 0. -1.
         21    1    1    2  504  506  0.80140199163E+02  0.98954194640E+02 -0.11211638059E+03  0.16965985664E+03  0.00000000000E+00 0. -1.
         21    1    1    2  505  503 -0.20119872835E+02  0.37772827278E+02 -0.15781252972E+03  0.16351266098E+03  0.00000000000E+00 0. -1.
         21    1    1    2  506  502 -0.14673228695E+02 -0.42000471633E+02 -0.11407131650E+04  0.11415804256E+04  0.00000000000E+00 0. -1.
<scales pt_clust_3="14000.00000" pt_clust_4="116.26209" pt_clust_5="42.79715" pt_clust_6="32.89258"></scales>
<clustering>
<clus scale="   42.797">  2  5  1 -1</clus>
<clus scale="   32.893">  2  6  1 -1</clus>
<clus scale="  116.262">  1  4  2 -1</clus>
<clus scale="  116.262">  1  3  2 -1</clus>
</clustering>
</event>
<event>
 6    0  0.1555973E+002  0.1360404E+03  0.7546771E-02  0.1218758E+00
         21   -1    0    0  502  501  0.00000000000E+00  0.00000000000E+00  0.53095667529E+03  0.53095667529E+03  0.00000000000E+00 0.  1.
         21   -1    0    0  505  502 -0.00000000000E+00 -0.00000000000E+00 -0.72010455557E+02  0.72010455557E+02  0.00000000000E+00 0.  1.
         21    1    1    2  503  504 -0.16331639399E+02 -0.48651557552E+02  0.20655453138E+02  0.55320378180E+02  0.00000000000E+00 0.  1.
         21    1    1    2  504  506 -0.28329338868E+02 -0.41257621556E+02  0.81149709212E+02  0.95341586322E+02  0.00000000000E+00 0.  1.
         21    1    1    2  505  503 -0.52849044467E+02 -0.16243161480E+02 -0.11512204810E+02  0.56474708104E+02  0.00000000000E+00 0.  1.
         21    1    1    2  506  501  0.97510022733E+02  0.10615234059E+03  0.36865326219E+03  0.39583045824E+03  0.00000000000E+00 0.  1.
<scales pt_clust_3="46.90989" pt_clust_4="46.90989" pt_clust_5="55.28889" pt_clust_6="127.47748"></scales>
<clustering>
<clus scale="   46.910">  3  4 -1 -1</clus>
<clus scale="   55.289">  2  5  1 -1</clus>
<clus scale="  127.477">  1  6  2 -1</clus>
<clus scale="  127.477">  1  3  2 -1</clus>
</clustering>
</event>
<event>
 6    0  0.1555973E+002  0.1038710E+03  0.7546771E-02  0.1272360E+00
         21   -1    0    0  505  501  0.00000000000E+00  0.00000000000E+00  0.24086440396E+03  0.24086440396E+03  0.00000000000E+00 0. -1.
         21   -1    0    0  506  502 -0.00000000000E+00 -0.00000000000E+00 -0.24335158363E+04  0.24335158363E+04  0.00000000000E+00 0.  1.
         21    1    1    2  503  502  0.15515321740E+02 -0.91705314887E+02 -0.23517486408E+04  0.23535871047E+04  0.00000000000E+00 0.  1.
         21    1    1    2  504  501 -0.40945182986E+02  0.54070517670E+02  0.10317244213E+03  0.12346935533E+03  0.00000000000E+00 0. -1.
         21    1    1    2  505  503  0.43327031942E+02 -0.51394599021E+02 -0.28796751209E+02  0.73129264906E+02  0.00000000000E+00 0.  1.
         21    1    1    2  506  504 -0.17897170697E+02  0.89029396239E+02  0.84721517499E+02  0.12419451534E+03  0.00000000000E+00 0. -1.
<scales pt_clust_3="93.25203" pt_clust_4="39.53981" pt_clust_5="67.22080" pt_clust_6="39.53981"></scales>
<clustering>
<clus scale="   39.540">  4  6 -1 -1</clus>
<clus scale="   67.221">  1  5  2 -1</clus>
<clus scale="   93.252">  2  3  1 -1</clus>
<clus scale="   67.221">  1  3  2 -1</clus>
</clustering>
</event>
<event>
 6    0  0.1555973E+002  0.1222637E+03  0.7546771E-02  0.1239409E+00
         21   -1    0    0  503  501  0.00000000000E+00  0.00000000000E+00  0.43130949188E+03  0.43130949188E+03  0.00000000000E+00 0.  1.
         21   -1    0    0  506  502 -0.00000000000E+00 -0.00000000000E+00 -0.87593241073E+02  0.87593241073E+02  0.00000000000E+00 0.  1.
         21    1    1    2  503  505  0.14665501400E+03 -0.22036175431E+01  0.28980955776E+03  0.32481091242E+03  0.00000000000E+00 0.  1.
         21    1    1    2  504  501 -0.36246120648E+02  0.13383359494E+01  0.49859381186E+02  0.61656551131E+02  0.00000000000E+00 0. -1.
         21    1    1    2  505  502 -0.70449705580E+02 -0.28088845612E+02 -0.18675596386E+02  0.78108400089E+02  0.00000000000E+00 0.  1.
         21    1    1    2  506  504 -0.39959187772E+02  0.28954127206E+02  0.22722908250E+02  0.54326869309E+02  0.00000000000E+00 0.  1.
<scales pt_clust_3="116.14360" pt_clust_4="32.74843" pt_clust_5="75.84289" pt_clust_6="32.74843"></scales>
<clustering>
<clus scale="   32.748">  4  6 -1 -1</clus>
<clus scale="   75.843">  2  5  1 -1</clus>
<clus scale="  116.144">  1  3  2 -1</clus>
<clus scale="  116.144">  1  3  2 -1</clus>
</clustering>
</event>
<event>
 6    0  0.1555973E+002  0.1587070E+03  0.7546771E-02  0.1190164E+00
         21   -1    0    0  503  501  0.00000000000E+00  0.00000000000E+00  0.37698635712E+03  0.37698635712E+03  0.00000000000E+00 0.  1.
         21   -1    0    0  504  502 -0.00000000000E+00 -0.00000000000E+00 -0.19310250453E+03  0.19310250453E+03  0.00000000000E+00 0.  1.
         21    1    1    2  503  502 -0.42866747868E+02 -0.16899524656E+03  0.17629307316E+03  0.24794394341E+03  0.00000000000E+00 0.  1.
         21    1    1    2  504  505 -0.28779857123E+01  0.53449060892E+02 -0.12168447923E+03  0.13293681731E+03  0.00000000000E+00 0.  1.
         21    1    1    2  505  506  0.44317251799E+02  0.35364610654E+02  0.66334989034E+02  0.87263997524E+02  0.00000000000E+00 0.  1.
         21    1    1    2  506  501  0.14274817816E+01  0.80181575016E+02  0.62940269633E+02  0.10194410340E+03  0.00000000000E+00 0.  1.
<scales pt_clust_3="146.77808" pt_clust_4="53.52649" pt_clust_5="50.75845" pt_clust_6="50.75845"></scales>
<clustering>
<clus scale="   50.758">  5  6 -1 -1</clus>
<clus scale="   53.526">  2  4  1 -1</clus>
<clus scale="  146.778">  2  3  1 -1</clus>
<clus scale="  158.707">  1  3  2 -1</clus>
</clustering>
</event>
<event>
 6    0  0.1555973E+002  0.1014667E+03  0.7546771E-02  0.1277242E+00
         21   -1    0    0  505  501  0.00000000000E+00  0.00000000000E+00  0.16788996929E+03  0.16788996929E+03  0.00000000000E+00 0. -1.
         21   -1    0    0  506  502 -0.00000000000E+00 -0.00000000000E+00 -0.20003777210E+03  0.20003777210E+03  0.00000000000E+00 0. -1.
         21    1    1    2  503  502  0.75896117424E+02 -0.29976891625E+02 -0.95827779583E+01  0.82162426357E+02  0.00000000000E+00 0. -1.
         21    1    1    2  504  503 -0.54737162103E+02 -0.32274743455E+01  0.26389137584E+02  0.60851952214E+02  0.00000000000E+00 0. -1.
         21    1    1    2  505  504 -0.45725586265E+02 -0.25510033808E+02  0.71533107091E+02  0.88648612365E+02  0.00000000000E+00 0. -1.
         21    1    1    2  506  501  0.24566630945E+02  0.58714399778E+02 -0.12048726953E+03  0.13626475045E+03  0.00000000000E+00 0. -1.
<scales pt_clust_3="91.93718" pt_clust_4="41.95180" pt_clust_5="41.95180" pt_clust_6="63.64668"></scales>
<clustering>
<clus scale="   41.952">  4  5 -1 -1</clus>
<clus scale="   63.647">  2  6  1 -1</clus>
<clus scale="   91.937">  2  3  1 -1</clus>
<clus scale="  101.467">  1  3  2 -1</clus>
</clustering>
</event>
<event>
 6    0  0.1555973E+002  0.9083971E+02  0.7546771E-02  0.1300831E+00
         21   -1    0    0  506  501  0.00000000000E+00  0.00000000000E+00  0.25529362130E+04  0.25529362130E+04  0.00000000000E+00 0.  1.
         21   -1    0    0  503  502 -0.00000000000E+00 -0.00000000000E+00 -0.30317221583E+02  0.30317221583E+02  0.00000000000E+00 0. -1.
         21    1    1    2  503  501 -0.16521089702E+02 -0.94913308390E+02  0.15663348991E+04  0.15692949049E+04  0.00000000000E+00 0.  1.
         21    1    1    2  504  505  0.36266528527E+02  0.70252698820E+02  0.62332090567E+03  0.62831493236E+03  0.00000000000E+00 0.  1.
         21    1    1    2  505  502 -0.48350244723E+02  0.51126212903E+02  0.24173039206E+02  0.74404110337E+02  0.00000000000E+00 0. -1.
         21    1    1    2  506  504  0.28604805898E+02 -0.26465603333E+02  0.30879014752E+03  0.31123948702E+03  0.00000000000E+00 0. -1.
<scales pt_clust_3="90.83971" pt_clust_4="14000.00000" pt_clust_5="69.51342" pt_clust_6="38.97003"></scales>
<clustering>
<clus scale="   38.970">  1  6  2 -1</clus>
<clus scale="   69.513">  2  5  1 -1</clus>
<clus scale="   90.840">  1  3  2 -1</clus>
<clus scale="   38.970">  1  3  2 -1</clus>
</clustering>
</event>
<event>
 6    0  0.1555973E+002  0.1262574E+03  0.7546771E-02  0.1233117E+00
         21   -1    0    0  506  501  0.00000000000E+00  0.00000000000E+00  0.35314081647E+02  0.35314081647E+02  0.00000000000E+00 0. -1.
         21   -1    0    0  505  502 -0.00000000000E+00 -0.00000000000E+00 -0.95188229117E+03  0.95188229117E+03  0.00000000000E+00 0. -1.
         21    1    1    2  503  501 -0.31168340138E+02 -0.33479136449E+02 -0.59788139534E+02  0.75279078324E+02  0.00000000000E+00 0. -1.
         21    1    1    2  504  503  0.51120226418E+02 -0.41636180902E+02 -0.73330838074E+02  0.98611667270E+02  0.00000000000E+00 0. -1.
         21    1    1    2  505  504  0.27502866086E+01 -0.45677846069E+02 -0.43228286878E+02  0.62950095189E+02  0.00000000000E+00 0.  1.
         21    1    1    2  506  502 -0.22702172889E+02  0.12079316342E+03 -0.74022094504E+03  0.75035553203E+03  0.00000000000E+00 0. -1.
<scales pt_clust_3="45.74186" pt_clust_4="37.16828" pt_clust_5="37.16828" pt_clust_6="118.11240"></scales>
<clustering>
<clus scale="   37.168">  4  5 -1 -1</clus>
<clus scale="   45.742">  1  3  2 -1</clus>
<clus scale="  118.112">  2  6  1 -1</clus>
<clus scale="   45.742">  1  3  2 -1</clus>
</clustering>
</event>
<event>
 6    0  0.1555973E+002  0.9920924E+02  0.7546771E-02  0.1281968E+00
         21   -1    0    0  505  501  0.00000000000E+00  0.00000000000E+00  0.16826341998E+03  0.16826341998E+03  0.00000000000E+00 0.  1.
         21   -1    0    0  503  502 -0.00000000000E+00 -0.00000000000E+00 -0.16829534947E+04  0.16829534947E+04  0.00000000000E+00 0. -1.
         21    1    1    2  503  506  0.47807459970E+02 -0.13928743020E+02 -0.88248390771E+02  0.10132789144E+03  0.00000000000E+00 0. -1.
         21    1    1    2  504  502 -0.55311156616E+02  0.12180897411E+03 -0.15389820845E+04  0.15447856184E+04  0.00000000000E+00 0. -1.
         21    1    1    2  505  504 -0.21166716312E+02 -0.45307888916E+02  0.12547252475E+03  0.13507105221E+03  0.00000000000E+00 0.  1.
         21    1    1    2  506  501  0.28670412959E+02 -0.62572342175E+02 -0.12932124180E+02  0.70032352669E+02  0.00000000000E+00 0.  1.
<scales pt_clust_3="49.79521" pt_clust_4="99.20924" pt_clust_5="49.98555" pt_clust_6="14000.00000"></scales>
<clustering>
<clus scale="   49.795">  2  3  1 -1</clus>
<clus scale="   49.986">  1  5  2 -1</clus>
<clus scale="   99.209">  2  4  1 -1</clus>
<clus scale="   49.986">  1  3  2 -1</clus>
</clustering>
</event>
<event>
 6    0  0.1555973E+002  0.8383686E+02  0.7546771E-02  0.1318503E+00
         21   -1    0    0  505  501  0.00000000000E+00  0.00000000000E+00  0.60615208394E+03  0.60615208394E+03  0.00000000000E+00 0.  1.
         21   -1    0    0  504  502 -0.00000000000E+00 -0.00000000000E+00 -0.21190695082E+03  0.21190695082E+03  0.00000000000E+00 0.  1.
         21    1    1    2  503  501 -0.61983534222E+02  0.23279595712E+02  0.13832719013E+03  0.15335680494E+03  0.00000000000E+00 0.  1.
         21    1    1    2  504  503  0.71002153140E+02 -0.13450367422E+02  0.13907081096E+03  0.15672558373E+03  0.00000000000E+00 0.  1.
         21    1    1    2  505  506  0.29177004205E+02  0.65229127405E+02  0.29893450158E+03  0.30735642644E+03  0.00000000000E+00 0.  1.
         21    1    1    2  506  502 -0.38195623123E+02 -0.75058355695E+02 -0.18208736955E+03  0.20062021966E+03  0.00000000000E+00 0.  1.
<scales pt_clust_3="66.21101" pt_clust_4="51.43448" pt_clust_5="83.83686" pt_clust_6="14000.00000"></scales>
<clustering>
<clus scale="   66.211">  1  3  2 -1</clus>
<clus scale="   51.434">  1  4  2 -1</clus>
<clus scale="   83.837">  1  5  2 -1</clus>
<clus scale="   66.211">  1  3  2 -1</clus>
</clustering>
</event>
<event>
 6    0  0.1555973E+002  0.1297325E+03  0.7546771E-02  0.1227853E+00
         21   -1    0    0  506  501  0.00000000000E+00  0.00000000000E+00  0.25773571500E+04  0.25773571500E+04  0.00000000000E+00 0. -1.
         21   -1    0    0  503  502 -0.00000000000E+00 -0.00000000000E+00 -0.72703468203E+02  0.72703468203E+02  0.00000000000E+00 0. -1.
         21    1    1    2  503  505 -0.30416462176E+02  0.36544569348E+02  0.85950504175E+02  0.98225026791E+02  0.00000000000E+00 0. -1.
         21    1    1    2  504  502 -0.22638568668E+02 -0.88977444360E+02 -0.23430888297E+02  0.94754930861E+02  0.00000000000E+00 0. -1.
         21    1    1    2  505  501 -0.74325398907E+02  0.10729805349E+03  0.10603668237E+04  0.10683702251E+04  0.00000000000E+00 0. -1.
         21    1    1    2  506  504  0.12738042975E+03 -0.54865178477E+02  0.13817672423E+04  0.13887104354E+04  0.00000000000E+00 0. -1.
<scales pt_clust_3="47.54647" pt_clust_4="75.23586" pt_clust_5="14000.00000" pt_clust_6="129.73250"></scales>
<clustering>
<clus scale="   47.546">  2  3  1 -1</clus>
<clus scale="   75.236">  2  4  1 -1</clus>
<clus scale="  129.733">  1  6  2 -1</clus>
<clus scale="  129.733">  1  3  2 -1</clus>
</clustering>
</event>
<event>
 6    0  0.1555973E+002  0.1339681E+03  0.7546771E-02  0.1221684E+00
         21   -1    0    0  506  501  0.00000000000E+00  0.00000000000E+00  0.70667665583E+03  0.70667665583E+03  0.00000000000E+00 0. -1.
         21   -1    0    0  501  502 -0.00000000000E+00 -0.00000000000E+00 -0.94407688291E+02  0.94407688291E+02  0.00000000000E+00 0. -1.
         21    1    1    2  503  504  0.85754571454E+02 -0.10382179063E+03  0.32590545936E+03  0.35262895397E+03  0.00000000000E+00 0. -1.
         21    1    1    2  504  502 -0.35235847153E+02  0.20299528339E+01 -0.65648265850E+02  0.74534424544E+02  0.00000000000E+00 0. -1.
         21    1    1    2  505  503 -0.55684306117E+00  0.36938167153E+02  0.58349992050E+02  0.69061275973E+02  0.00000000000E+00 0.  1.
         21    1    1    2  506  505 -0.49961881240E+02  0.64853670639E+02  0.29366178198E+03  0.30485968964E+03  0.00000000000E+00 0. -1.
<scales pt_clust_3="122.29705" pt_clust_4="35.29427" pt_clust_5="36.20162" pt_clust_6="36.20162"></scales>
<clustering>
<clus scale="   35.294">  2  4  1 -1</clus>
<clus scale="   36.202">  5  6 -1 -1</clus>
<clus scale="  122.297">  2  3  1 -1</clus>
<clus scale="  133.968">  1  3  2 -1</clus>
</clustering>
</event>
<event>
 6    0  0.1555973E+002  0.9402896E+02  0.7546771E-02  0.1293378E+00
         21   -1    0    0  505  501  0.00000000000E+00  0.00000000000E+00  0.59937609902E+03  0.59937609902E+03  0.00000000000E+00 0.  1.
         21   -1    0    0  504  502 -0.00000000000E+00 -0.00000000000E+00 -0.20961843918E+04  0.20961843918E+04  0.00000000000E+00 0. -1.
         21    1    1    2  503  502 -0.69884685549E+01  0.48261510501E+02 -0.20255836760E+04  0.20261705853E+04  0.00000000000E+00 0. -1.
         21    1    1    2  504  501  0.75054947475E+02  0.45721341072E+02  0.98535358827E+02  0.13203371959E+03  0.00000000000E+00 0.  1.
         21    1    1    2  505  506 -0.13651595657E+02 -0.10465251368E+03  0.46169553031E+03  0.47360455803E+03  0.00000000000E+00 0.  1.
         21    1    1    2  506  503 -0.54414883264E+02  0.10669662108E+02 -0.31455505886E+02  0.63751627906E+02  0.00000000000E+00 0. -1.
<scales pt_clust_3="48.76487" pt_clust_4="14000.00000" pt_clust_5="94.02896" pt_clust_6="73.32969"></scales>
<clustering>
<clus scale="   48.765">  2  3  1 -1</clus>
<clus scale="   73.330">  2  6  1 -1</clus>
<clus scale="   94.029">  1  5  2 -1</clus>
<clus scale="   94.029">  1  3  2 -1</clus>
</clustering>
</event>
<event>
 6    0  0.1555973E+002  0.1345004E+03  0.7546771E-02  0.1220927E+00
         21   -1    0    0  503  501  0.00000000000E+00  0.00000000000E+00  0.13492982725E+04  0.13492982725E+04  0.00000000000E+00 0. -1.
         21   -1    0    0  505  502 -0.00000000000E+00 -0.00000000000E+00 -0.45888040178E+02  0.45888040178E+02  0.00000000000E+00 0. -1.
         21    1    1    2  503  502  0.11250530383E+02 -0.75581341015E+02  0.39728419835E+02  0.86124682212E+02  0.00000000000E+00 0. -1.
         21    1    1    2  504  506  0.43591268516E+02  0.73356033288E+02  0.22494373816E+03  0.24058468706E+03  0.00000000000E+00 0. -1.
         21    1    1    2  505  504  0.59432148669E+02  0.45268690079E+02  0.11789862471E+03  0.13957621683E+03  0.00000000000E+00 0.  1.
         21    1    1    2  506  501 -0.11427394757E+03 -0.43043382352E+02  0.92083944965E+03  0.92890072661E+03  0.00000000000E+00 0. -1.
<scales pt_clust_3="76.41409" pt_clust_4="44.83313" pt_clust_5="44.83313" pt_clust_6="125.67652"></scales>
<clustering>
<clus scale="   44.833">  4  5 -1 -1</clus>
<clus scale="   76.414">  2  3  1 -1</clus>
<clus scale="  125.677">  1  6  2 -1</clus>
<clus scale="  125.677">  1  3  2 -1</clus>
</clustering>
</event>
<event>
 6    0  0.1555973E+002  0.1068523E+03  0.7546771E-02  0.1266512E+00
         21   -1    0    0  506  501  0.00000000000E+00  0.00000000000E+00  0.11657620210E+04  0.11657620210E+04  0.00000000000E+00 0.  1.
         21   -1    0    0  503  502 -0.00000000000E+00 -0.00000000000E+00 -0.51524635162E+03  0.51524635162E+03  0.00000000000E+00 0. -1.
         21    1    1    2  503  505 -0.55855952694E+02  0.76095653570E+01  0.10984052992E+02  0.57432067318E+02  0.00000000000E+00 0.  1.
         21    1    1    2  504  501  0.10479097779E+03 -0.94153135702E+02  0.90044322948E+03  0.91139671466E+03  0.00000000000E+00 0.  1.
         21    1    1    2  505  504 -0.56091725267E+02  0.44426635166E+02  0.21898824732E+03  0.23038198719E+03  0.00000000000E+00 0. -1.
         21    1    1    2  506  502  0.71567001721E+01  0.42116935180E+02 -0.47989986045E+03  0.48179760341E+03  0.00000000000E+00 0. -1.
<scales pt_clust_3="62.47174" pt_clust_4="14000.00000" pt_clust_5="106.85235" pt_clust_6="42.72066"></scales>
<clustering>
<clus scale="   42.721">  2  6  1 -1</clus>
<clus scale="   62.472">  2  3  1 -1</clus>
<clus scale="  106.852">  2  5  1 -1</clus>
<clus scale="  106.852">  1  3  2 -1</clus>
</clustering>
</event>
<event>
 6    0  0.1555973E+002  0.1739323E+03  0.7546771E-02  0.1173808E+00
         21   -1    0    0  505  501  0.00000000000E+00  0.00000000000E+00  0.41959750270E+03  0.41959750270E+03  0.00000000000E+00 0. -1.
         21   -1    0    0  504  502 -0.00000000000E+00 -0.00000000000E+00 -0.36241743967E+03  0.36241743967E+03  0.00000000000E+00 0. -1.
         21    1    1    2  503  502  0.21232737352E+02  0.34377065503E+02 -0.24832463872E+03  0.25159041707E+03  0.00000000000E+00 0. -1.
         21    1    1    2  504  501 -0.16689118191E+03 -0.13157110089E+03  0.23374125906E+03  0.31590916001E+03  0.00000000000E+00 0. -1.
         21    1    1    2  505  506  0.13122116769E+03  0.49923855152E+02  0.83986723008E+02  0.16360059843E+03  0.00000000000E+00 0. -1.
         21    1    1    2  506  503  0.14437276862E+02  0.47270180241E+02 -0.12223280323E+02  0.50914766866E+02  0.00000000000E+00 0.  1.
<scales pt_clust_3="40.40559" pt_clust_4="14000.00000" pt_clust_5="173.93228" pt_clust_6="60.46471"></scales>
<clustering>
<clus scale="   40.406">  2  3  1 -1</clus>
<clus scale="   60.465">  2  6  1 -1</clus>
<clus scale="  173.932">  1  5  2 -1</clus>
<clus scale="  173.932">  1  3  2 -1</clus>
</clustering>
</event>
<event>
 6    0  0.1555973E+002  0.1021069E+03  0.7546771E-02  0.1275927E+00
         21   -1    0    0  504  501  0.00000000000E+00  0.00000000000E+00  0.13533917967E+03  0.13533917967E+03  0.00000000000E+00 0. -1.
         21   -1    0    0  505  502 -0.00000000000E+00 -0.00000000000E+00 -0.50822822217E+03  0.50822822217E+03  0.00000000000E+00 0. -1.
         21    1    1    2  503  502  0.12230312217E+02  0.80358127317E+02 -0.35340607780E+02  0.88633897134E+02  0.00000000000E+00 0. -1.
         21    1    1    2  504  506  0.35541732443E+02 -0.58411813059E+01  0.69342848822E+02  0.78139393566E+02  0.00000000000E+00 0. -1.
         21    1    1    2  505  501  0.11541099142E+02 -0.10785415696E+03 -0.39254823734E+03  0.40725892843E+03  0.00000000000E+00 0. -1.
         21    1    1    2  506  503 -0.59313143803E+02  0.33337210950E+02 -0.14343046201E+02  0.69535182720E+02  0.00000000000E+00 0. -1.
<scales pt_clust_3="102.10689" pt_clust_4="36.01853" pt_clust_5="14000.00000" pt_clust_6="53.16450"></scales>
<clustering>
<clus scale="   36.019">  1  4  2 -1</clus>
<clus scale="   53.164">  1  6  2 -1</clus>
<clus scale="  102.107">  1  3  2 -1</clus>
<clus scale="   36.019">  1  3  2 -1</clus>
</clustering>
</event>
<event>
 6    0  0.1555973E+002  0.1099843E+03  0.7546771E-02  0.1260599E+00
         21   -1    0    0  504  501  0.00000000000E+00  0.00000000000E+00  0.37235604222E+02  0.37235604222E+02  0.00000000000E+00 0.  1.
         21   -1    0    0  506  502 -0.00000000000E+00 -0.00000000000E+00 -0.21760686963E+04  0.21760686963E+04  0.00000000000E+00 0. -1.
         21    1    1    2  503  501  0.85483392140E+02 -0.10154255636E+01 -0.29568192773E+03  0.30779253371E+03  0.00000000000E+00 0.  1.
         21    1    1    2  504  505 -0.12043257370E+03 -0.10352667783E+01 -0.10050972478E+03  0.15686708182E+03  0.00000000000E+00 0.  1.
         21    1    1    2  505  502  0.17884529122E+02  0.51593897008E+02 -0.14699778017E+04  0.14709916805E+04  0.00000000000E+00 0. -1.
         21    1    1    2  506  503  0.17064652433E+02 -0.49543204666E+02 -0.27266363789E+03  0.27765300452E+03  0.00000000000E+00 0.  1.
<scales pt_clust_3="109.98430" pt_clust_4="14000.00000" pt_clust_5="33.79870" pt_clust_6="52.39973"></scales>
<clustering>
<clus scale="   52.400">  2  6  1 -1</clus>
<clus scale="   33.799">  2  5  1 -1</clus>
<clus scale="  109.984">  2  3  1 -1</clus>
<clus scale="  109.984">  1  3  2 -1</clus>
</clustering>
</event>
<event>
 6    0  0.1555973E+002  0.2323932E+03  0.7546771E-02  0.1124967E+00
         21   -1    0    0  506  501  0.00000000000E+00  0.00000000000E+00  0.18090144551E+03  0.18090144551E+03  0.00000000000E+00 0.  1.
         21   -1    0    0  505  502 -0.00000000000E+00 -0.00000000000E+00 -0.52508035490E+03  0.52508035490E+03  0.00000000000E+00 0.  1.
         21    1    1    2  503  504 -0.49832943221E+02  0.31121886868E+02  0.70081094373E+01  0.59169313586E+02  0.00000000000E+00 0.  1.
         21    1    1    2  504  502 -0.34188474104E+02 -0.11932151388E+02 -0.38884964037E+02  0.53134437293E+02  0.00000000000E+00 0. -1.
         21    1    1    2  505  501  0.25122985947E+03 -0.25426184243E+02 -0.34058236364E+03  0.42398028204E+03  0.00000000000E+00 0.  1.
         21    1    1    2  506  503 -0.16720844215E+03  0.62364487625E+01  0.28280308856E+02  0.16969776748E+03  0.00000000000E+00 0.  1.
<scales pt_clust_3="30.40176" pt_clust_4="36.21088" pt_clust_5="226.65909" pt_clust_6="30.40176"></scales>
<clustering>
<clus scale="   30.402">  3  6 -1 -1</clus>
<clus scale="   36.211">  2  4  1 -1</clus>
<clus scale="  226.659">  2  5  1 -1</clus>
<clus scale="  232.393">  1  3  2 -1</clus>
</clustering>
</event>
<event>
 6    0  0.1555973E+002  0.1399280E+03  0.7546771E-02  0.1213426E+00
         21   -1    0    0  503  501  0.00000000000E+00  0.00000000000E+00  0.56325989041E+03  0.56325989041E+03  0.00000000000E+00 0.  1.
         21   -1    0    0  504  502 -0.00000000000E+00 -0.00000000000E+00 -0.51760229574E+03  0.51760229574E+03  0.00000000000E+00 0.  1.
         21    1    1    2  503  506  0.51159908153E+02  0.74895053512E+02  0.25883256069E+03  0.27426428808E+03  0.00000000000E+00 0.  1.
         21    1    1    2  504  505 -0.10273780850E+03 -0.31713541087E+02 -0.47111642131E+03  0.48323026437E+03  0.00000000000E+00 0.  1.
         21    1    1    2  505  501  0.37086030596E+02 -0.11225037995E+03  0.12016368095E+03  0.16856699465E+03  0.00000000000E+00 0.  1.
         21    1    1    2  506  502  0.14491869746E+02  0.69068867527E+02  0.13777777433E+03  0.15480063905E+03  0.00000000000E+00 0.  1.
<scales pt_clust_3="37.01829" pt_clust_4="107.52119" pt_clust_5="133.48659" pt_clust_6="37.01829"></scales>
<clustering>
<clus scale="   37.018">  3  6 -1 -1</clus>
<clus scale="  107.521">  2  4  1 -1</clus>
<clus scale="  133.487">  2  5  1 -1</clus>
<clus scale="  139.928">  1  3  2 -1</clus>
</clustering>
</event>
<event>
 6    0  0.1555973E+002  0.8415217E+02  0.7546771E-02  0.1317665E+00
         21   -1    0    0  505  501  0.00000000000E+00  0.00000000000E+00  0.26340580270E+03  0.26340580270E+03  0.00000000000E+00 0. -1.
         21   -1    0    0  504  502 -0.00000000000E+00 -0.00000000000E+00 -0.10486278270E+03  0.10486278270E+03  0.00000000000E+00 0. -1.
         21    1    1    2  503  502  0.87093559952E+02 -0.25893241723E+02 -0.37444655044E+02  0.98274362595E+02  0.00000000000E+00 0. -1.
         21    1    1    2  504  501 -0.73289101460E+02 -0.48645724726E+02  0.75929938486E+02  0.11620264406E+03  0.00000000000E+00 0. -1.
         21    1    1    2  505  506 -0.12772397865E+02  0.32286597386E+02  0.10214941891E+03  0.10788912041E+03  0.00000000000E+00 0. -1.
         21    1    1    2  506  503 -0.10320606267E+01  0.42252369064E+02  0.17908317644E+02  0.45902458338E+02  0.00000000000E+00 0. -1.
<scales pt_clust_3="14000.00000" pt_clust_4="84.15217" pt_clust_5="34.72115" pt_clust_6="48.88927"></scales>
<clustering>
<clus scale="   34.721">  1  5  2 -1</clus>
<clus scale="   48.889">  1  6  2 -1</clus>
<clus scale="   84.152">  1  4  2 -1</clus>
<clus scale="   34.721">  1  3  2 -1</clus>
</clustering>
</event>
<event>
 6    0  0.1555973E+002  0.1039146E+03  0.7546771E-02  0.1272273E+00
         21   -1    0    0  503  501  0.00000000000E+00  0.00000000000E+00  0.56027101003E+03  0.56027101003E+03  0.00000000000E+00 0. -1.
         21   -1    0    0  504  502 -0.00000000000E+00 -0.00000000000E+00 -0.81242336473E+03  0.81242336473E+03  0.00000000000E+00 0. -1.
         21    1    1    2  503  505  0.39589575647E+02 -0.35233797538E+02  0.43248568166E+03  0.43572080491E+03  0.00000000000E+00 0. -1.
         21    1    1    2  504  506 -0.17521149103E+02 -0.39928793152E+02 -0.70262343086E+03  0.70397513080E+03  0.00000000000E+00 0. -1.
         21    1    1    2  505  502 -0.13239690812E+02  0.14663390814E+03  0.48175336520E+02  0.15491176675E+03  0.00000000000E+00 0. -1.
         21    1    1    2  506  501 -0.88287357313E+01 -0.71471317449E+02 -0.30189942010E+02  0.78086672302E+02  0.00000000000E+00 0. -1.
<scales pt_clust_3="53.20072" pt_clust_4="43.60389" pt_clust_5="103.91462" pt_clust_6="14000.00000"></scales>
<clustering>
<clus scale="   43.604">  2  4  1 -1</clus>
<clus scale="   53.201">  1  3  2 -1</clus>
<clus scale="  103.915">  1  5  2 -1</clus>
<clus scale="   53.201">  1  3  2 -1</clus>
</clustering>
</event>
<event>
 6    0  0.1555973E+002  0.8693654E+02  0.7546771E-02  0.1310445E+00
         21   -1    0    0  503  501  0.00000000000E+00  0.00000000000E+00  0.83107537217E+03  0.83107537217E+03  0.00000000000E+00 0. -1.
         21   -1    0    0  506  502 -0.00000000000E+00 -0.00000000000E+00 -0.42668137818E+02  0.42668137818E+02  0.00000000000E+00 0. -1.
         21    1    1    2  503  504  0.14047545978E+02  0.38628391877E+02  0.26429495864E+03  0.26747207587E+03  0.00000000000E+00 0.  1.
         21    1    1    2  504  502  0.10049237603E+03  0.41547535320E+02  0.33061343446E+03  0.34803758184E+03  0.00000000000E+00 0. -1.
         21    1    1    2  505  501 -0.64313631948E+02 -0.11570464510E+02  0.14803517018E+03  0.16181634810E+03  0.00000000000E+00 0. -1.
         21    1    1    2  506  505 -0.50226290060E+02 -0.68605462688E+02  0.45463671079E+02  0.96417504177E+02  0.00000000000E+00 0. -1.
<scales pt_clust_3="41.10336" pt_clust_4="86.93654" pt_clust_5="60.47101" pt_clust_6="14000.00000"></scales>
<clustering>
<clus scale="   41.103">  1  3  2 -1</clus>
<clus scale="   60.471">  1  5  2 -1</clus>
<clus scale="   86.937">  1  4  2 -1</clus>
<clus scale="   41.103">  1  3  2 -1</clus>
</clustering>
</event>
<event>
 6    0  0.1555973E+002  0.4136586E+03  0.7546771E-02  0.1039150E+00
         21   -1    0    0  502  501  0.00000000000E+00  0.00000000000E+00  0.80429005608E+03  0.80429005608E+03  0.00000000000E+00 0. -1.
         21   -1    0    0  504  502 -0.00000000000E+00 -0.00000000000E+00 -0.55916374917E+03  0.55916374917E+03  0.00000000000E+00 0.  1.
         21    1    1    2  503  506  0.10429006312E+03  0.19369742026E+03 -0.22147003961E+02  0.22110087667E+03  0.00000000000E+00 0.  1.
         21    1    1    2  504  505 -0.17434093097E+02  0.25157221950E+02 -0.25083541141E+03  0.25269593791E+03  0.00000000000E+00 0.  1.
         21    1    1    2  505  503  0.10673912346E+03  0.14788919531E+03 -0.47345513526E+02  0.18843049705E+03  0.00000000000E+00 0.  1.
         21    1    1    2  506  501 -0.19359509347E+03 -0.36674383752E+03  0.56545423580E+03  0.70122649363E+03  0.00000000000E+00 0. -1.
<scales pt_clust_3="37.17895" pt_clust_4="30.60773" pt_clust_5="37.17895" pt_clust_6="411.63268"></scales>
<clustering>
<clus scale="   30.608">  2  4  1 -1</clus>
<clus scale="   37.179">  3  5 -1 -1</clus>
<clus scale="  411.633">  1  6  2 -1</clus>
<clus scale="  411.633">  1  3  2 -1</clus>
</clustering>
</event>
<event>
 6    0  0.1555973E+002  0.1132735E+03  0.7546771E-02  0.1254625E+00
         21   -1    0    0  505  501  0.00000000000E+00  0.00000000000E+00  0.27603701046E+03  0.27603701046E+03  0.00000000000E+00 0.  1.
         21   -1    0    0  504  502 -0.00000000000E+00 -0.00000000000E+00 -0.84253397016E+02  0.84253397016E+02  0.00000000000E+00 0.  1.
         21    1    1    2  503  506 -0.42895435967E+02 -0.39690017271E+02  0.44440211920E+02  0.73418310613E+02  0.00000000000E+00 0.  1.
         21    1    1    2  504  501 -0.17566894906E+02 -0.25960242998E+02 -0.27552247457E+02  0.41733156519E+02  0.00000000000E+00 0. -1.
         21    1    1    2  505  503 -0.21817457417E+02 -0.29144172962E+02  0.79634252788E+02  0.87561398361E+02  0.00000000000E+00 0.  1.
         21    1    1    2  506  502  0.82279788290E+02  0.94794433231E+02  0.95261396192E+02  0.15757754198E+03  0.00000000000E+00 0.  1.
<scales pt_clust_3="30.33766" pt_clust_4="31.34533" pt_clust_5="30.33766" pt_clust_6="106.00381"></scales>
<clustering>
<clus scale="   31.345">  2  4  1 -1</clus>
<clus scale="   30.338">  3  5 -1 -1</clus>
<clus scale="  106.004">  2  6  1 -1</clus>
<clus scale="  113.274">  1  3  2 -1</clus>
</clustering>
</event>
<event>
 6    0  0.1555973E+002  0.1786649E+03  0.7546771E-02  0.1169101E+00
         21   -1    0    0  505  501  0.00000000000E+00  0.00000000000E+00  0.12023959306E+04  0.12023959306E+04  0.00000000000E+00 0. -1.
         21   -1    0    0  503  502 -0.00000000000E+00 -0.00000000000E+00 -0.18696865142E+03  0.18696865142E+03  0.00000000000E+00 0. -1.
         21    1    1    2  503  506 -0.75377914968E+00  0.38903837213E+02 -0.10237523526E+03  0.10952061691E+03  0.00000000000E+00 0. -1.
         21    1    1    2  504  501 -0.20351379045E+03 -0.24439216693E+02  0.87465361714E+03  0.89835076012E+03  0.00000000000E+00 0. -1.
         21    1    1    2  505  502  0.11020510050E+03 -0.11272044867E+03  0.12189551123E+03  0.19927262578E+03  0.00000000000E+00 0. -1.
         21    1    1    2  506  504  0.94062469099E+02  0.98255828153E+02  0.12125338605E+03  0.18222057921E+03  0.00000000000E+00 0. -1.
<scales pt_clust_3="38.91114" pt_clust_4="14000.00000" pt_clust_5="144.66832" pt_clust_6="178.66486"></scales>
<clustering>
<clus scale="   38.911">  2  3  1 -1</clus>
<clus scale="  144.668">  2  5  1 -1</clus>
<clus scale="  178.665">  2  6  1 -1</clus>
<clus scale="  178.665">  1  3  2 -1</clus>
</clustering>
</event>
<event>
 6    0  0.1555973E+002  0.1375656E+03  0.7546771E-02  0.1216643E+00
         21   -1    0    0  503  501  0.00000000000E+00  0.00000000000E+00  0.13322209256E+02  0.13322209256E+02  0.00000000000E+00 0.  1.
         21   -1    0    0  501  502 -0.00000000000E+00 -0.00000000000E+00 -0.22987465159E+04  0.22987465159E+04  0.00000000000E+00 0.  1.
         21    1    1    2  503  506  0.27472138953E+02 -0.18899578030E+02 -0.58939012698E+02  0.67717942129E+02  0.00000000000E+00 0.  1.
         21    1    1    2  504  505  0.49891278797E+02 -0.63529167501E+02 -0.41342111005E+03  0.42123877915E+03  0.00000000000E+00 0.  1.
         21    1    1    2  505  502 -0.11258982779E+03  0.79840422261E+02 -0.16722089296E+04  0.16778956066E+04  0.00000000000E+00 0.  1.
         21    1    1    2  506  504  0.35226410043E+02  0.25883232697E+01 -0.14085525436E+03  0.14521639736E+03  0.00000000000E+00 0.  1.
<scales pt_clust_3="33.34535" pt_clust_4="34.51560" pt_clust_5="127.41239" pt_clust_6="34.51560"></scales>
<clustering>
<clus scale="   33.345">  1  3  2 -1</clus>
<clus scale="   34.516">  4  6 -1 -1</clus>
<clus scale="  127.412">  2  5  1 -1</clus>
<clus scale="   33.345">  1  3  2 -1</clus>
</clustering>
</event>
<event>
 6    0  0.1555973E+002  0.1216244E+03  0.7546771E-02  0.1240441E+00
         21   -1    0    0  506  501  0.00000000000E+00  0.00000000000E+00  0.11862729234E+04  0.11862729234E+04  0.00000000000E+00 0.  1.
         21   -1    0    0  504  502 -0.00000000000E+00 -0.00000000000E+00 -0.31161754146E+03  0.31161754146E+03  0.00000000000E+00 0. -1.
         21    1    1    2  503  501 -0.69068031084E+02 -0.10054405647E+03  0.99598548957E+03  0.10034274242E+04  0.00000000000E+00 0.  1.
         21    1    1    2  504  505 -0.27417549459E+02 -0.39814058159E+02 -0.25238342332E+03  0.25697134785E+03  0.00000000000E+00 0. -1.
         21    1    1    2  505  503  0.61729720954E+01  0.60317198069E+02  0.92884406410E+02  0.11092241848E+03  0.00000000000E+00 0.  1.
         21    1    1    2  506  502  0.90312608447E+02  0.80040916564E+02  0.38168909270E+02  0.12656927433E+03  0.00000000000E+00 0.  1.
<scales pt_clust_3="14000.00000" pt_clust_4="48.34130" pt_clust_5="54.04187" pt_clust_6="121.62437"></scales>
<clustering>
<clus scale="   48.341">  2  4  1 -1</clus>
<clus scale="   54.042">  2  5  1 -1</clus>
<clus scale="  121.624">  2  6  1 -1</clus>
<clus scale="  121.624">  1  3  2 -1</clus>
</clustering>
</event>
<event>
 6    0  0.1555973E+002  0.2142949E+03  0.7546771E-02  0.1138209E+00
         21   -1    0    0  505  501  0.00000000000E+00  0.00000000000E+00  0.50222204121E+03  0.50222204121E+03  0.00000000000E+00 0. -1.
         21   -1    0    0  506  502 -0.00000000000E+00 -0.00000000000E+00 -0.76838267121E+03  0.76838267121E+03  0.00000000000E+00 0. -1.
         21    1    1    2  503  502 -0.16094855587E+02  0.52410660074E+02 -0.67427632418E+03  0.67650165042E+03  0.00000000000E+00 0. -1.
         21    1    1    2  504  501  0.44467392296E+02 -0.16439994152E+03  0.11897387377E+03  0.20774857975E+03  0.00000000000E+00 0. -1.
         21    1    1    2  505  503 -0.95799105195E+02  0.14862696606E+03  0.22615187691E+03  0.28707510345E+03  0.00000000000E+00 0. -1.
         21    1    1    2  506  504  0.67426568487E+02 -0.36637684615E+02  0.62989943500E+02  0.99279378795E+02  0.00000000000E+00 0. -1.
<scales pt_clust_3="54.82629" pt_clust_4="62.94846" pt_clust_5="194.17353" pt_clust_6="62.94846"></scales>
<clustering>
<clus scale="   54.826">  2  3  1 -1</clus>
<clus scale="   62.948">  4  6 -1 -1</clus>
<clus scale="  194.174">  1  5  2 -1</clus>
<clus scale="  194.174">  1  3  2 -1</clus>
</clustering>
</event>
<event>
 6    0  0.1555973E+002  0.1112753E+03  0.7546771E-02  0.1258226E+00
         21   -1    0    0  504  501  0.00000000000E+00  0.00000000000E+00  0.52669443345E+03  0.52669443345E+03  0.00000000000E+00 0. -1.
         21   -1    0    0  505  502 -0.00000000000E+00 -0.00000000000E+00 -0.40888926802E+03  0.40888926802E+03  0.00000000000E+00 0. -1.
         21    1    1    2  503  502  0.21419686474E+02 -0.29128767864E+02 -0.33038119272E+03  0.33235375820E+03  0.00000000000E+00 0. -1.
         21    1    1    2  504  506 -0.11552073133E+03 -0.11548271522E+02  0.19680771085E+03  0.22849874615E+03  0.00000000000E+00 0. -1.
         21    1    1    2  505  501  0.14216490319E+01  0.48156959424E+02  0.27468169295E+03  0.27887478600E+03  0.00000000000E+00 0. -1.
         21    1    1    2  506  503  0.92679395826E+02 -0.74799200380E+01 -0.23303045652E+02  0.95856411111E+02  0.00000000000E+00 0. -1.
<scales pt_clust_3="36.15644" pt_clust_4="111.27531" pt_clust_5="47.41143" pt_clust_6="14000.00000"></scales>
<clustering>
<clus scale="   36.156">  2  3  1 -1</clus>
<clus scale="   47.411">  1  5  2 -1</clus>
<clus scale="  111.275">  1  4  2 -1</clus>
<clus scale="   47.411">  1  3  2 -1</clus>
</clustering>
</event>
<event>
 6    0  0.1555973E+002  0.1944518E+03  0.7546771E-02  0.1154506E+00
         21   -1    0    0  503  501  0.00000000000E+00  0.00000000000E+00  0.29273350430E+03  0.29273350430E+03  0.00000000000E+00 0.  1.
         21   -1    0    0  506  502 -0.00000000000E+00 -0.00000000000E+00 -0.88620015457E+03  0.88620015457E+03  0.00000000000E+00 0.  1.
         21    1    1    2  503  502 -0.12769500701E+01 -0.12290567361E+03 -0.69046797560E+03  0.70132265081E+03  0.00000000000E+00 0.  1.
         21    1    1    2  504  505 -0.73156919290E+02  0.20321256422E+02 -0.61335514228E+02  0.97606012152E+02  0.00000000000E+00 0.  1.
         21    1    1    2  505  501  0.17705656253E+03  0.95115294691E+02  0.18558416199E+03  0.27356430104E+03  0.00000000000E+00 0.  1.
         21    1    1    2  506  504 -0.10262269317E+03  0.74691224980E+01 -0.27247322425E+02  0.10644069487E+03  0.00000000000E+00 0.  1.
<scales pt_clust_3="122.91231" pt_clust_4="39.52756" pt_clust_5="188.92892" pt_clust_6="39.52756"></scales>
<clustering>
<clus scale="   39.528">  4  6 -1 -1</clus>
<clus scale="  122.912">  2  3  1 -1</clus>
<clus scale="  188.929">  1  5  2 -1</clus>
<clus scale="  188.929">  1  3  2 -1</clus>
</clustering>
</event>
<event>
 6    0  0.1555973E+002  0.1355715E+03  0.7546771E-02  0.1219415E+00
         21   -1    0    0  506  501  0.00000000000E+00  0.00000000000E+00  0.60937373191E+03  0.60937373191E+03  0.00000000000E+00 0.  1.
         21   -1    0    0  501  502 -0.00000000000E+00 -0.00000000000E+00 -0.21501451038E+03  0.21501451038E+03  0.00000000000E+00 0. -1.
         21    1    1    2  503  502  0.14130349282E+02 -0.27251524322E+02 -0.13032881245E+03  0.13389515191E+03  0.00000000000E+00 0. -1.
         21    1    1    2  504  505  0.10297482113E+03 -0.10169617765E+03  0.75063831842E+02  0.16303528816E+03  0.00000000000E+00 0.  1.
         21    1    1    2  505  503 -0.75266198597E+02 -0.10213508706E+01  0.21788221755E+02  0.78363067934E+02  0.00000000000E+00 0.  1.
         21    1    1    2  506  504 -0.41838971814E+02  0.12996905284E+03  0.42783598039E+03  0.44909473429E+03  0.00000000000E+00 0.  1.
<scales pt_clust_3="30.69711" pt_clust_4="14000.00000" pt_clust_5="71.19664" pt_clust_6="135.57145"></scales>
<clustering>
<clus scale="   30.697">  2  3  1 -1</clus>
<clus scale="   71.197">  2  5  1 -1</clus>
<clus scale="  135.571">  1  6  2 -1</clus>
<clus scale="  135.571">  1  3  2 -1</clus>
</clustering>
</event>
<event>
 6    0  0.1555973E+002  0.9467823E+02  0.7546771E-02  0.1291902E+00
         21   -1    0    0  505  501  0.00000000000E+00  0.00000000000E+00  0.40290416514E+03  0.40290416514E+03  0.00000000000E+00 0. -1.
         21   -1    0    0  504  502 -0.00000000000E+00 -0.00000000000E+00 -0.26944274613E+03  0.26944274613E+03  0.00000000000E+00 0. -1.
         21    1    1    2  503  502 -0.96877534915E+02  0.18661029659E+02 -0.19404504229E+03  0.21768548238E+03  0.00000000000E+00 0. -1.
         21    1    1    2  504  506  0.85128831262E+02  0.57301273523E+02 -0.45611273559E+01  0.10271882857E+03  0.00000000000E+00 0. -1.
         21    1    1    2  505  503  0.36993083107E+02 -0.92633256604E+01  0.63534363549E+02  0.74100693327E+02  0.00000000000E+00 0. -1.
         21    1    1    2  506  501 -0.25244379453E+02 -0.66698977521E+02  0.26853322511E+03  0.27784190700E+03  0.00000000000E+00 0. -1.
<scales pt_clust_3="94.67823" pt_clust_4="14000.00000" pt_clust_5="38.13525" pt_clust_6="74.44221"></scales>
<clustering>
<clus scale="   38.135">  1  5  2 -1</clus>
<clus scale="   74.442">  1  6  2 -1</clus>
<clus scale="   94.678">  2  3  1 -1</clus>
<clus scale="   38.135">  1  3  2 -1</clus>
</clustering>
</event>
<event>
 6    0  0.1555973E+002  0.9429061E+02  0.7546771E-02  0.1292782E+00
         21   -1    0    0  503  501  0.00000000000E+00  0.00000000000E+00  0.47680415620E+03  0.47680415620E+03  0.00000000000E+00 0.  1.
         21   -1    0    0  505  502 -0.00000000000E+00 -0.00000000000E+00 -0.11004271423E+03  0.11004271423E+03  0.00000000000E+00 0.  1.
         21    1    1    2  503  506 -0.96587889765E+01 -0.55430006379E+02  0.20844242355E+03  0.21590280625E+03  0.00000000000E+00 0.  1.
         21    1    1    2  504  502  0.29834492197E+02  0.12925464262E+02 -0.55963109778E+02  0.64722748760E+02  0.00000000000E+00 0.  1.
         21    1    1    2  505  501  0.21166276074E+02  0.12324171309E+03  0.14870434262E+03  0.19429233799E+03  0.00000000000E+00 0.  1.
         21    1    1    2  506  504 -0.41341979294E+02 -0.80737170970E+02  0.65577785580E+02  0.11192897744E+03  0.00000000000E+00 0.  1.
<scales pt_clust_3="54.96299" pt_clust_4="32.51407" pt_clust_5="14000.00000" pt_clust_6="94.29061"></scales>
<clustering>
<clus scale="   32.514">  2  4  1 -1</clus>
<clus scale="   54.963">  1  3  2 -1</clus>
<clus scale="   94.291">  2  6  1 -1</clus>
<clus scale="   54.963">  1  3  2 -1</clus>
</clustering>
</event>
<event>
 6    0  0.1555973E+002  0.1169773E+03  0.7546771E-02  0.1248168E+00
         21   -1    0    0  504  501  0.00000000000E+00  0.00000000000E+00  0.97479703429E+02  0.97479703429E+02  0.00000000000E+00 0.  1.
         21   -1    0    0  506  502 -0.00000000000E+00 -0.00000000000E+00 -0.19285603343E+04  0.19285603343E+04  0.00000000000E+00 0. -1.
         21    1    1    2  503  505  0.13511115142E+03  0.10799219916E+03 -0.79418202866E+02  0.19032758408E+03  0.00000000000E+00 0.  1.
         21    1    1    2  504  502 -0.43331497536E+02 -0.52188394040E+02 -0.55698042099E+02  0.87769693202E+02  0.00000000000E+00 0.  1.
         21    1    1    2  505  501  0.21813301673E+02 -0.33994322228E+02  0.70527271543E+01  0.41002134505E+02  0.00000000000E+00 0. -1.
         21    1    1    2  506  503 -0.11359295556E+03 -0.21809482888E+02 -0.17030171131E+04  0.17069406260E+04  0.00000000000E+00 0. -1.
<scales pt_clust_3="116.97733" pt_clust_4="70.99952" pt_clust_5="40.39101" pt_clust_6="14000.00000"></scales>
<clustering>
<clus scale="   40.391">  1  5  2 -1</clus>
<clus scale="   71.000">  1  4  2 -1</clus>
<clus scale="  116.977">  1  3  2 -1</clus>
<clus scale="   40.391">  1  3  2 -1</clus>
</clustering>
</event>
<event>
 6    0  0.1555973E+002  0.1137730E+03  0.7546771E-02  0.1253738E+00
         21   -1    0    0  503  501  0.00000000000E+00  0.00000000000E+00  0.63131333436E+03  0.63131333436E+03  0.00000000000E+00 0. -1.
         21   -1    0    0  505  502 -0.00000000000E+00 -0.00000000000E+00 -0.19804111485E+03  0.19804111485E+03  0.00000000000E+00 0.  1.
         21    1    1    2  503  504  0.70411440471E+02  0.48369144653E+02  0.30653667123E+03  0.31821702643E+03  0.00000000000E+00 0. -1.
         21    1    1    2  504  502  0.10761086261E+03 -0.57452282647E+01 -0.11333528630E+03  0.15639051288E+03  0.00000000000E+00 0.  1.
         21    1    1    2  505  506 -0.18351607820E+03 -0.95787463611E+02  0.20103516942E+03  0.28856286747E+03  0.00000000000E+00 0. -1.
         21    1    1    2  506  501  0.54937751195E+01  0.53163547223E+02  0.39035665160E+02  0.66184042434E+02  0.00000000000E+00 0. -1.
<scales pt_clust_3="106.41130" pt_clust_4="14000.00000" pt_clust_5="113.77304" pt_clust_6="53.44665"></scales>
<clustering>
<clus scale="   53.447">  1  6  2 -1</clus>
<clus scale="  106.411">  1  3  2 -1</clus>
<clus scale="  113.773">  1  5  2 -1</clus>
<clus scale="   53.447">  1  3  2 -1</clus>
</clustering>
</event>
<event>
 6    0  0.1555973E+002  0.1515331E+03  0.7546771E-02  0.1198602E+00
         21   -1    0    0  503  501  0.00000000000E+00  0.00000000000E+00  0.20956528695E+03  0.20956528695E+03  0.00000000000E+00 0.  1.
         21   -1    0    0  504  502 -0.00000000000E+00 -0.00000000000E+00 -0.72396085934E+03  0.72396085934E+03  0.00000000000E+00 0. -1.
         21    1    1    2  503  506 -0.55552368599E+02 -0.12231717294E+03  0.11515195660E+03  0.17693933866E+03  0.00000000000E+00 0.  1.
         21    1    1    2  504  505  0.10675004055E+03  0.72336403654E+02 -0.61647593848E+03  0.62981799686E+03  0.00000000000E+00 0. -1.
         21    1    1    2  505  501 -0.79669651939E+02  0.38303128030E+02  0.90617905597E+01  0.88862247919E+02  0.00000000000E+00 0. -1.
         21    1    1    2  506  502  0.28471979984E+02  0.11677641261E+02 -0.22133381070E+02  0.37906562851E+02  0.00000000000E+00 0. -1.
<scales pt_clust_3="151.53309" pt_clust_4="14000.00000" pt_clust_5="87.22442" pt_clust_6="30.77371"></scales>
<clustering>
<clus scale="   30.774">  2  6  1 -1</clus>
<clus scale="   87.224">  1  5  2 -1</clus>
<clus scale="  151.533">  1  3  2 -1</clus>
<clus scale="   87.224">  1  3  2 -1</clus>
</clustering>
</event>
<event>
 6    0  0.1555973E+002  0.1046921E+03  0.7546771E-02  0.1270727E+00
         21   -1    0    0  503  501  0.00000000000E+00  0.00000000000E+00  0.65156864757E+03  0.65156864757E+03  0.00000000000E+00 0. -1.
         21   -1    0    0  504  502 -0.00000000000E+00 -0.00000000000E+00 -0.14763736061E+03  0.14763736061E+03  0.00000000000E+00 0.  1.
         21    1    1    2  503  505 -0.45392510459E+02  0.33390386622E+02  0.14068263362E+03  0.15154867643E+03  0.00000000000E+00 0.  1.
         21    1    1    2  504  506  0.59884436548E+02 -0.68988991461E+02 -0.10538353002E+03  0.13946797153E+03  0.00000000000E+00 0.  1.
         21    1    1    2  505  502  0.43267444561E+02  0.23502565790E+02  0.16068183843E+02  0.51794100915E+02  0.00000000000E+00 0. -1.
         21    1    1    2  506  501 -0.57759370649E+02  0.12096039049E+02  0.45256399952E+03  0.45639525930E+03  0.00000000000E+00 0. -1.
<scales pt_clust_3="55.50592" pt_clust_4="104.69215" pt_clust_5="49.23863" pt_clust_6="14000.00000"></scales>
<clustering>
<clus scale="   49.239">  2  5  1 -1</clus>
<clus scale="   55.506">  1  3  2 -1</clus>
<clus scale="  104.692">  2  4  1 -1</clus>
<clus scale="   55.506">  1  3  2 -1</clus>
</clustering>
</event>
<event>
 6    0  0.1555973E+002  0.1059326E+03  0.7546771E-02  0.1268293E+00
         21   -1    0    0  502  501  0.00000000000E+00  0.00000000000E+00  0.15427561692E+03  0.15427561692E+03  0.00000000000E+00 0. -1.
         21   -1    0    0  505  502 -0.00000000000E+00 -0.00000000000E+00 -0.19359235826E+03  0.19359235826E+03  0.00000000000E+00 0. -1.
         21    1    1    2  503  506  0.67643570483E+02  0.86912798454E+02 -0.31362255274E+02  0.11451234963E+03  0.00000000000E+00 0. -1.
         21    1    1    2  504  503 -0.44834752532E+02  0.32404175598E+02 -0.13943327617E+02  0.57049119326E+02  0.00000000000E+00 0. -1.
         21    1    1    2  505  504 -0.50380493824E+02 -0.12673570727E+01 -0.16464989315E+02  0.53017885897E+02  0.00000000000E+00 0. -1.
         21    1    1    2  506  501  0.27571675873E+02 -0.11804961698E+03  0.22453830866E+02  0.12328862032E+03  0.00000000000E+00 0. -1.
<scales pt_clust_3="14000.00000" pt_clust_4="105.78317" pt_clust_5="32.43287" pt_clust_6="105.93262"></scales>
<clustering>
<clus scale="   32.433">  4  5 -1 -1</clus>
<clus scale="  105.783">  2  4  1 -1</clus>
<clus scale="  105.933">  1  6  2 -1</clus>
<clus scale="  105.933">  1  3  2 -1</clus>
</clustering>
</event>
<event>
 6    0  0.1555973E+002  0.9374544E+02  0.7546771E-02  0.1294027E+00
         21   -1    0    0  505  501  0.00000000000E+00  0.00000000000E+00  0.71027277433E+03  0.71027277433E+03  0.00000000000E+00 0.  1.
         21   -1    0    0  503  502 -0.00000000000E+00 -0.00000000000E+00 -0.26129330289E+03  0.26129330289E+03  0.00000000000E+00 0.  1.
         21    1    1    2  503  506  0.74957945668E+02  0.36968762650E+02 -0.24010391014E+03  0.25423467642E+03  0.00000000000E+00 0.  1.
         21    1    1    2  504  502 -0.16980678989E+02  0.40970253304E+02  0.10525311719E+03  0.11421525201E+03  0.00000000000E+00 0.  1.
         21    1    1    2  505  504 -0.35158351469E+02  0.26434384544E+02  0.19269523732E+03  0.19765207019E+03  0.00000000000E+00 0.  1.
         21    1    1    2  506  501 -0.22818915209E+02 -0.10437340050E+03  0.39113502707E+03  0.40546407859E+03  0.00000000000E+00 0.  1.
<scales pt_clust_3="83.57860" pt_clust_4="34.87291" pt_clust_5="34.87291" pt_clust_6="86.96014"></scales>
<clustering>
<clus scale="   34.873">  4  5 -1 -1</clus>
<clus scale="   83.579">  2  3  1 -1</clus>
<clus scale="   86.960">  2  6  1 -1</clus>
<clus scale="   93.745">  1  3  2 -1</clus>
</clustering>
</event>
<event>
 6    0  0.1555973E+002  0.1368711E+03  0.7546771E-02  0.1217602E+00
         21   -1    0    0  502  501  0.00000000000E+00  0.00000000000E+00  0.42162417170E+03  0.42162417170E+03  0.00000000000E+00 0.  1.
         21   -1    0    0  503  502 -0.00000000000E+00 -0.00000000000E+00 -0.94670512904E+03  0.94670512904E+03  0.00000000000E+00 0. -1.
         21    1    1    2  503  504 -0.10085145320E+02 -0.80043701841E+02 -0.87405587598E+03  0.87777125648E+03  0.00000000000E+00 0. -1.
         21    1    1    2  504  506 -0.11660995861E+03  0.46875046037E+02  0.13488496000E+02  0.12640052180E+03  0.00000000000E+00 0. -1.
         21    1    1    2  505  501  0.44303434967E+02  0.11085941871E+02  0.19088171744E+03  0.19626900548E+03  0.00000000000E+00 0.  1.
         21    1    1    2  506  505  0.82391668961E+02  0.22082713934E+02  0.14460470520E+03  0.16788851699E+03  0.00000000000E+00 0.  1.
<scales pt_clust_3="80.67654" pt_clust_4="125.80124" pt_clust_5="39.45641" pt_clust_6="39.45641"></scales>
<clustering>
<clus scale="   39.456">  5  6 -1 -1</clus>
<clus scale="   80.677">  2  3  1 -1</clus>
<clus scale="  125.801">  2  4  1 -1</clus>
<clus scale="  136.871">  1  3  2 -1</clus>
</clustering>
</event>
<event>
 6    0  0.1555973E+002  0.1732184E+03  0.7546771E-02  0.1174533E+00
         21   -1    0    0  506  501  0.00000000000E+00  0.00000000000E+00  0.20387740407E+03  0.20387740407E+03  0.00000000000E+00 0.  1.
         21   -1    0    0  503  502 -0.00000000000E+00 -0.00000000000E+00 -0.55948515787E+03  0.55948515787E+03  0.00000000000E+00 0. -1.
         21    1    1    2  503  505  0.37773915569E+02  0.40881354291E+02  0.31546117837E+02  0.63978991682E+02  0.00000000000E+00 0.  1.
         21    1    1    2  504  502 -0.48781605398E+02 -0.18828951460E+03 -0.46214812831E+03  0.50141148654E+03  0.00000000000E+00 0. -1.
         21    1    1    2  505  501  0.17059715565E+02  0.32566345688E+02  0.74379424662E+02  0.82969268887E+02  0.00000000000E+00 0.  1.
         21    1    1    2  506  504 -0.60520257357E+01  0.11484181462E+03  0.61483200317E+00  0.11500281483E+03  0.00000000000E+00 0.  1.
<scales pt_clust_3="101.85073" pt_clust_4="14000.00000" pt_clust_5="36.09280" pt_clust_6="173.21836"></scales>
<clustering>
<clus scale="   36.093">  3  5 -1 -1</clus>
<clus scale="  101.851">  1  3  2 -1</clus>
<clus scale="  173.218">  1  6  2 -1</clus>
<clus scale="  101.851">  1  3  2 -1</clus>
</clustering>
</event>
<event>
 6    0  0.1555973E+002  0.1613810E+03  0.7546771E-02  0.1187146E+00
         21   -1    0    0  504  501  0.00000000000E+00  0.00000000000E+00  0.15215236603E+03  0.15215236603E+03  0.00000000000E+00 0.  1.
         21   -1    0    0  503  502 -0.00000000000E+00 -0.00000000000E+00 -0.44580283893E+03  0.44580283893E+03  0.00000000000E+00 0.  1.
         21    1    1    2  503  505  0.10369370831E+03  0.55772199061E+02 -0.10154016529E+03  0.15547774277E+03  0.00000000000E+00 0.  1.
         21    1    1    2  504  506 -0.41068658128E+02 -0.49708180386E+02 -0.34166887669E+02  0.72972008954E+02  0.00000000000E+00 0.  1.
         21    1    1    2  505  501  0.11801504979E+03 -0.75946078149E+02 -0.64278902682E+02  0.15436040973E+03  0.00000000000E+00 0.  1.
         21    1    1    2  506  502 -0.18064009997E+03  0.69882059474E+02 -0.93664517258E+02  0.21514504351E+03  0.00000000000E+00 0.  1.
<scales pt_clust_3="105.72507" pt_clust_4="64.47897" pt_clust_5="161.38104" pt_clust_6="14000.00000"></scales>
<clustering>
<clus scale="   64.479">  1  4  2 -1</clus>
<clus scale="  105.725">  2  3  1 -1</clus>
<clus scale="  161.381">  1  5  2 -1</clus>
<clus scale="   64.479">  1  3  2 -1</clus>
</clustering>
</event>
<event>
 6    0  0.1555973E+002  0.1044185E+03  0.7546771E-02  0.1271269E+00
         21   -1    0    0  502  501  0.00000000000E+00  0.00000000000E+00  0.33037519281E+03  0.33037519281E+03  0.00000000000E+00 0.  1.
         21   -1    0    0  506  502 -0.00000000000E+00 -0.00000000000E+00 -0.42694308666E+03  0.42694308666E+03  0.00000000000E+00 0. -1.
         21    1    1    2  503  501 -0.23374260783E+02 -0.24838176740E+02  0.11095319782E+03  0.11607714330E+03  0.00000000000E+00 0.  1.
         21    1    1    2  504  505 -0.46621720305E+02  0.58521675169E+02 -0.16531166840E+01  0.74840524207E+02  0.00000000000E+00 0.  1.
         21    1    1    2  505  503  0.94942487341E+02 -0.76228230772E+02  0.15785086166E+03  0.19935323824E+03  0.00000000000E+00 0.  1.
         21    1    1    2  506  504 -0.24946506253E+02  0.42544732342E+02 -0.36371883664E+03  0.36704737372E+03  0.00000000000E+00 0. -1.
<scales pt_clust_3="34.10705" pt_clust_4="104.41855" pt_clust_5="14000.00000" pt_clust_6="49.24613"></scales>
<clustering>
<clus scale="   34.107">  1  3  2 -1</clus>
<clus scale="   49.246">  2  6  1 -1</clus>
<clus scale="  104.419">  2  4  1 -1</clus>
<clus scale="   34.107">  1  3  2 -1</clus>
</clustering>
</event>
<event>
 6    0  0.1555973E+002  0.1269764E+03  0.7546771E-02  0.1232012E+00
         21   -1    0    0  503  501  0.00000000000E+00  0.00000000000E+00  0.11569788624E+04  0.11569788624E+04  0.00000000000E+00 0.  1.
         21   -1    0    0  504  502 -0.00000000000E+00 -0.00000000000E+00 -0.36467939362E+02  0.36467939362E+02  0.00000000000E+00 0.  1.
         21    1    1    2  503  502 -0.71831845375E+02  0.38287978629E+02  0.29005779592E+03  0.30126285582E+03  0.00000000000E+00 0. -1.
         21    1    1    2  504  505  0.13392427470E+03  0.12348310997E+02  0.13255573335E+03  0.18883647578E+03  0.00000000000E+00 0.  1.
         21    1    1    2  505  506 -0.39267656723E+02 -0.24228402846E+02  0.52100951992E+03  0.52304864422E+03  0.00000000000E+00 0.  1.
         21    1    1    2  506  501 -0.22824772606E+02 -0.26407886779E+02  0.17688787385E+03  0.18029882596E+03  0.00000000000E+00 0.  1.
<scales pt_clust_3="81.39891" pt_clust_4="122.08860" pt_clust_5="30.34696" pt_clust_6="30.34696"></scales>
<clustering>
<clus scale="   30.347">  5  6 -1 -1</clus>
<clus scale="   81.399">  1  3  2 -1</clus>
<clus scale="  122.089">  2  4  1 -1</clus>
<clus scale="   81.399">  1  3  2 -1</clus>
</clustering>
</event>
<event>
 6    0  0.1555973E+002  0.8639069E+02  0.7546771E-02  0.1311835E+00
         21   -1    0    0  504  501  0.00000000000E+00  0.00000000000E+00  0.83116287409E+02  0.83116287409E+02  0.00000000000E+00 0.  1.
         21   -1    0    0  503  502 -0.00000000000E+00 -0.00000000000E+00 -0.52608747428E+03  0.52608747428E+03  0.00000000000E+00 0.  1.
         21    1    1    2  503  506 -0.43479632702E+02  0.63863483736E+02  0.17353983596E+02  0.79184491925E+02  0.00000000000E+00 0.  1.
         21    1    1    2  504  505  0.33534420263E+02 -0.85163026247E+01 -0.86264706477E+01  0.35658109156E+02  0.00000000000E+00 0.  1.
         21    1    1    2  505  502  0.70108652161E+02 -0.52559906851E+02 -0.41430395677E+03  0.42346845870E+03  0.00000000000E+00 0.  1.
         21    1    1    2  506  501 -0.60163439721E+02 -0.27872742601E+01 -0.37394743053E+02  0.70892701915E+02  0.00000000000E+00 0.  1.
<scales pt_clust_3="86.39069" pt_clust_4="34.59891" pt_clust_5="14000.00000" pt_clust_6="52.31761"></scales>
<clustering>
<clus scale="   34.599">  1  4  2 -1</clus>
<clus scale="   52.318">  1  6  2 -1</clus>
<clus scale="   86.391">  1  3  2 -1</clus>
<clus scale="   34.599">  1  3  2 -1</clus>
</clustering>
</event>
<event>
 6    0  0.1555973E+002  0.1390348E+03  0.7546771E-02  0.1214634E+00
         21   -1    0    0  505  501  0.00000000000E+00  0.00000000000E+00  0.19759685890E+03  0.19759685890E+03  0.00000000000E+00 0. -1.
         21   -1    0    0  503  502 -0.00000000000E+00 -0.00000000000E+00 -0.17584028176E+03  0.17584028176E+03  0.00000000000E+00 0. -1.
         21    1    1    2  503  504  0.51705061207E+01  0.71549731246E+02 -0.17798832358E+01  0.71758387379E+02  0.00000000000E+00 0. -1.
         21    1    1    2  504  501 -0.41274615667E+02  0.49961098154E+02  0.37786948284E+02  0.75017055979E+02  0.00000000000E+00 0. -1.
         21    1    1    2  505  506  0.64448127094E+02 -0.10409531570E+03  0.66501040201E+02  0.13932617911E+03  0.00000000000E+00 0. -1.
         21    1    1    2  506  502 -0.28344017548E+02 -0.17415513701E+02 -0.80751528105E+02  0.87335518202E+02  0.00000000000E+00 0. -1.
<scales pt_clust_3="64.04273" pt_clust_4="64.04273" pt_clust_5="123.09566" pt_clust_6="33.26685"></scales>
<clustering>
<clus scale="   33.267">  2  6  1 -1</clus>
<clus scale="   64.043">  3  4 -1 -1</clus>
<clus scale="  123.096">  1  5  2 -1</clus>
<clus scale="  123.096">  1  3  2 -1</clus>
</clustering>
</event>
<event>
 6    0  0.1555973E+002  0.1400146E+03  0.7546771E-02  0.1213309E+00
         21   -1    0    0  503  501  0.00000000000E+00  0.00000000000E+00  0.16002306767E+03  0.16002306767E+03  0.00000000000E+00 0.  1.
         21   -1    0    0  506  502 -0.00000000000E+00 -0.00000000000E+00 -0.35022745532E+03  0.35022745532E+03  0.00000000000E+00 0. -1.
         21    1    1    2  503  505  0.78825013132E+02  0.45468136184E+01  0.76812963225E+02  0.11015574215E+03  0.00000000000E+00 0.  1.
         21    1    1    2  504  502  0.36218306485E+02 -0.57434771306E+01 -0.24632421578E+02  0.44175892147E+02  0.00000000000E+00 0.  1.
         21    1    1    2  505  504  0.50659959424E+02  0.50105280775E+01  0.11998737630E+02  0.52302070563E+02  0.00000000000E+00 0.  1.
         21    1    1    2  506  501 -0.16570327904E+03 -0.38138645653E+01 -0.25438366693E+03  0.30361681813E+03  0.00000000000E+00 0. -1.
<scales pt_clust_3="32.59012" pt_clust_4="36.67088" pt_clust_5="32.59012" pt_clust_6="134.00287"></scales>
<clustering>
<clus scale="   32.590">  3  5 -1 -1</clus>
<clus scale="   36.671">  2  4  1 -1</clus>
<clus scale="  134.003">  2  6  1 -1</clus>
<clus scale="  140.015">  1  3  2 -1</clus>
</clustering>
</event>
<event>
 6    0  0.1555973E+002  0.2830112E+03  0.7546771E-02  0.1094056E+00
         21   -1    0    0  505  501  0.00000000000E+00  0.00000000000E+00  0.63469406765E+03  0.63469406765E+03  0.00000000000E+00 0.  1.
         21   -1    0    0  503  502 -0.00000000000E+00 -0.00000000000E+00 -0.17053077160E+03  0.17053077160E+03  0.00000000000E+00 0. -1.
         21    1    1    2  503  506  0.72147221127E+02  0.18230237943E+03  0.30378602460E+02  0.19839918989E+03  0.00000000000E+00 0. -1.
         21    1    1    2  504  501 -0.62565709267E+02 -0.26998519838E+03  0.38527363039E+03  0.47459692960E+03  0.00000000000E+00 0.  1.
         21    1    1    2  505  502 -0.30958916763E+02  0.25749804608E+02 -0.13046442769E+02  0.42328673892E+02  0.00000000000E+00 0. -1.
         21    1    1    2  506  504  0.21377404904E+02  0.61933014335E+02  0.61557505972E+02  0.89900045865E+02  0.00000000000E+00 0.  1.
<scales pt_clust_3="45.30255" pt_clust_4="271.71479" pt_clust_5="40.26794" pt_clust_6="45.30255"></scales>
<clustering>
<clus scale="   40.268">  2  5  1 -1</clus>
<clus scale="   45.303">  3  6 -1 -1</clus>
<clus scale="  271.715">  1  4  2 -1</clus>
<clus scale="  271.715">  1  3  2 -1</clus>
</clustering>
</event>
<event>
 6    0  0.1555973E+002  0.1415607E+03  0.7546771E-02  0.1211244E+00
         21   -1    0    0  506  501  0.00000000000E+00  0.00000000000E+00  0.20213901965E+02  0.20213901965E+02  0.00000000000E+00 0. -1.
         21   -1    0    0  505  502 -0.00000000000E+00 -0.00000000000E+00 -0.16534816894E+04  0.16534816894E+04  0.00000000000E+00 0. -1.
         21    1    1    2  503  502 -0.41212251803E+02  0.10915816339E+02 -0.47725586558E+03  0.47915630641E+03  0.00000000000E+00 0. -1.
         21    1    1    2  504  503 -0.92205670592E+02  0.40359086706E+02 -0.44546404914E+03  0.45669350843E+03  0.00000000000E+00 0. -1.
         21    1    1    2  505  501  0.11655227491E+03  0.26029041132E+02 -0.44688359793E+03  0.46256555629E+03  0.00000000000E+00 0. -1.
         21    1    1    2  506  504  0.16865647483E+02 -0.77303944177E+02 -0.26366427483E+03  0.27528022027E+03  0.00000000000E+00 0. -1.
<scales pt_clust_3="41.02461" pt_clust_4="41.02461" pt_clust_5="126.75189" pt_clust_6="79.12237"></scales>
<clustering>
<clus scale="   41.025">  3  4 -1 -1</clus>
<clus scale="   79.122">  1  6  2 -1</clus>
<clus scale="  126.752">  1  5  2 -1</clus>
<clus scale="   79.122">  1  3  2 -1</clus>
</clustering>
</event>
<event>
 6    0  0.1555973E+002  0.7339266E+02  0.7546771E-02  0.1348922E+00
         21   -1    0    0  504  501  0.00000000000E+00  0.00000000000E+00  0.22545906137E+03  0.22545906137E+03  0.00000000000E+00 0.  1.
         21   -1    0    0  505  502 -0.00000000000E+00 -0.00000000000E+00 -0.65528956225E+03  0.65528956225E+03  0.00000000000E+00 0.  1.
         21    1    1    2  503  502 -0.32530267473E+02 -0.12736649920E+01 -0.54909896283E+03  0.55006318865E+03  0.00000000000E+00 0.  1.
         21    1    1    2  504  506  0.64182138112E+02 -0.29314084578E+02  0.51141360036E+02  0.87144139869E+02  0.00000000000E+00 0.  1.
         21    1    1    2  505  501 -0.89060723455E+02  0.83047433861E+02  0.10187406576E+03  0.15876716917E+03  0.00000000000E+00 0.  1.
         21    1    1    2  506  503  0.57408852817E+02 -0.52459684291E+02 -0.33746963848E+02  0.84774125926E+02  0.00000000000E+00 0.  1.
<scales pt_clust_3="32.55519" pt_clust_4="65.65834" pt_clust_5="14000.00000" pt_clust_6="73.39266"></scales>
<clustering>
<clus scale="   32.555">  2  3  1 -1</clus>
<clus scale="   65.658">  1  4  2 -1</clus>
<clus scale="   73.393">  2  6  1 -1</clus>
<clus scale="   65.658">  1  3  2 -1</clus>
</clustering>
</event>
<event>
 6    0  0.1555973E+002  0.9356957E+02  0.7546771E-02  0.1294431E+00
         21   -1    0    0  505  501  0.00000000000E+00  0.00000000000E+00  0.28880483054E+03  0.28880483054E+03  0.00000000000E+00 0. -1.
         21   -1    0    0  504  502 -0.00000000000E+00 -0.00000000000E+00 -0.14545632132E+03  0.14545632132E+03  0.00000000000E+00 0. -1.
         21    1    1    2  503  506  0.84615823857E+02  0.79173714868E+02  0.10503499091E+03  0.15639905399E+03  0.00000000000E+00 0. -1.
         21    1    1    2  504  501 -0.38090117907E+01 -0.58990701275E+02 -0.80449599389E+02  0.99832607146E+02  0.00000000000E+00 0. -1.
         21    1    1    2  505  503 -0.23905595518E+02  0.22064045453E+02  0.99361858363E+02  0.10455179815E+03  0.00000000000E+00 0. -1.
         21    1    1    2  506  502 -0.56901216549E+02 -0.42247059046E+02  0.19401259342E+02  0.73477692580E+02  0.00000000000E+00 0. -1.
<scales pt_clust_3="14000.00000" pt_clust_4="58.06620" pt_clust_5="32.53152" pt_clust_6="93.56957"></scales>
<clustering>
<clus scale="   32.532">  1  5  2 -1</clus>
<clus scale="   58.066">  2  4  1 -1</clus>
<clus scale="   93.570">  2  6  1 -1</clus>
<clus scale="   32.532">  1  3  2 -1</clus>
</clustering>
</event>
<event>
 6    0  0.1555973E+002  0.1490739E+03  0.7546771E-02  0.1201616E+00
         21   -1    0    0  503  501  0.00000000000E+00  0.00000000000E+00  0.80497332158E+03  0.80497332158E+03  0.00000000000E+00 0. -1.
         21   -1    0    0  506  502 -0.00000000000E+00 -0.00000000000E+00 -0.47428025096E+03  0.47428025096E+03  0.00000000000E+00 0. -1.
         21    1    1    2  503  505  0.23403913316E+02 -0.25757003170E+02  0.31666943902E+02  0.47052754509E+02  0.00000000000E+00 0.  1.
         21    1    1    2  504  502 -0.27310772735E+02  0.42183363291E+02 -0.43590326347E+03  0.43879034806E+03  0.00000000000E+00 0. -1.
         21    1    1    2  505  504 -0.69884530352E+02  0.11726074557E+03  0.24783741152E+03  0.28294400962E+03  0.00000000000E+00 0. -1.
         21    1    1    2  506  501  0.73791389772E+02 -0.13368710570E+03  0.48709197868E+03  0.51046646033E+03  0.00000000000E+00 0. -1.
<scales pt_clust_3="34.80182" pt_clust_4="50.18776" pt_clust_5="149.07387" pt_clust_6="14000.00000"></scales>
<clustering>
<clus scale="   34.802">  1  3  2 -1</clus>
<clus scale="   50.188">  2  4  1 -1</clus>
<clus scale="  149.074">  2  5  1 -1</clus>
<clus scale="   34.802">  1  3  2 -1</clus>
</clustering>
</event>
<event>
 6    0  0.5751108E+002  0.2043992E+03  0.7546771E-02  0.1146080E+00
         21   -1    0    0  506  501  0.00000000000E+00  0.00000000000E+00  0.97903138311E+03  0.97903138311E+03  0.00000000000E+00 0. -1.
         21   -1    0    0  504  502 -0.00000000000E+00 -0.00000000000E+00 -0.97665737851E+03  0.97665737851E+03  0.00000000000E+00 0.  1.
         21    1    1    2  503  501  0.24247196251E+02  0.16021355264E+03  0.80050040493E+03  0.81673570221E+03  0.00000000000E+00 0. -1.
         21    1    1    2  504  503 -0.29288927629E+02  0.28969386623E+02  0.14113596320E+03  0.14702525889E+03  0.00000000000E+00 0.  1.
         21    1    1    2  505  502  0.29115453125E+02 -0.24533887943E+02 -0.69690863324E+03  0.69794789516E+03  0.00000000000E+00 0.  1.
         21    1    1    2  506  505 -0.24073721747E+02 -0.16464905132E+03 -0.24235373028E+03  0.29397990537E+03  0.00000000000E+00 0.  1.
<scales pt_clust_3="40.02509" pt_clust_4="40.02509" pt_clust_5="38.07389" pt_clust_6="188.25113"></scales>
<clustering>
<clus scale="   38.074">  2  5  1 -1</clus>
<clus scale="   40.025">  3  4 -1 -1</clus>
<clus scale="  188.251">  2  6  1 -1</clus>
<clus scale="  204.399">  1  3  2 -1</clus>
</clustering>
</event>
<event>
 6    0  0.1555973E+002  0.1745525E+03  0.7546771E-02  0.1173182E+00
         21   -1    0    0  503  501  0.00000000000E+00  0.00000000000E+00  0.78189871255E+02  0.78189871255E+02  0.00000000000E+00 0. -1.
         21   -1    0    0  506  502 -0.00000000000E+00 -0.00000000000E+00 -0.23903223430E+04  0.23903223430E+04  0.00000000000E+00 0.  1.
         21    1    1    2  503  505  0.46803703908E+02 -0.66421653032E+02  0.11467223787E+02  0.82060464978E+02  0.00000000000E+00 0. -1.
         21    1    1    2  504  501 -0.32395851703E+02  0.11522779322E+02 -0.30518239322E+02  0.45974216493E+02  0.00000000000E+00 0.  1.
         21    1    1    2  505  502  0.87867887335E+02  0.15868196978E+03 -0.20430557038E+04  0.20510917439E+04  0.00000000000E+00 0.  1.
         21    1    1    2  506  504 -0.10227573954E+03 -0.10378309607E+03 -0.25002575243E+03  0.28938578888E+03  0.00000000000E+00 0.  1.
<scales pt_clust_3="63.98964" pt_clust_4="34.38409" pt_clust_5="14000.00000" pt_clust_6="174.55249"></scales>
<clustering>
<clus scale="   34.384">  1  4  2 -1</clus>
<clus scale="   63.990">  1  3  2 -1</clus>
<clus scale="  174.552">  1  6  2 -1</clus>
<clus scale="   34.384">  1  3  2 -1</clus>
</clustering>
</event>
<event>
 6    0  0.1555973E+002  0.1311090E+03  0.7546771E-02  0.1225819E+00
         21   -1    0    0  506  501  0.00000000000E+00  0.00000000000E+00  0.56049632227E+02  0.56049632227E+02  0.00000000000E+00 0.  1.
         21   -1    0    0  505  502 -0.00000000000E+00 -0.00000000000E+00 -0.13947896965E+04  0.13947896965E+04  0.00000000000E+00 0.  1.
         21    1    1    2  503  502  0.11511859358E+03 -0.59875028429E+02 -0.86558412465E+03  0.87525606908E+03  0.00000000000E+00 0.  1.
         21    1    1    2  504  501 -0.73155722293E+02 -0.83105658086E+02 -0.12676066235E+03  0.16830500774E+03  0.00000000000E+00 0.  1.
         21    1    1    2  505  504 -0.94954886001E+02  0.10709167051E+03 -0.28331679068E+03  0.31741685549E+03  0.00000000000E+00 0.  1.
         21    1    1    2  506  503  0.52992014714E+02  0.35889016001E+02 -0.63078486555E+02  0.89861396378E+02  0.00000000000E+00 0.  1.
<scales pt_clust_3="131.10900" pt_clust_4="80.92852" pt_clust_5="14000.00000" pt_clust_6="64.00137"></scales>
<clustering>
<clus scale="   64.001">  1  6  2 -1</clus>
<clus scale="   80.929">  1  4  2 -1</clus>
<clus scale="  131.109">  2  3  1 -1</clus>
<clus scale="   64.001">  1  3  2 -1</clus>
</clustering>
</event>
<event>
 6    0  0.1555973E+002  0.1497290E+03  0.7546771E-02  0.1200806E+00
         21   -1    0    0  505  501  0.00000000000E+00  0.00000000000E+00  0.59594702104E+02  0.59594702104E+02  0.00000000000E+00 0. -1.
         21   -1    0    0  503  502 -0.00000000000E+00 -0.00000000000E+00 -0.10207116847E+04  0.10207116847E+04  0.00000000000E+00 0. -1.
         21    1    1    2  503  504 -0.48999498535E+02 -0.33983719000E+02 -0.90809518197E+02  0.10863798879E+03  0.00000000000E+00 0. -1.
         21    1    1    2  504  501 -0.75471946159E+02 -0.32366924826E+02 -0.42931545624E+02  0.92664718687E+02  0.00000000000E+00 0. -1.
         21    1    1    2  505  506  0.13675906030E+03  0.36029018831E+02 -0.17140734831E+03  0.22221973321E+03  0.00000000000E+00 0. -1.
         21    1    1    2  506  502 -0.12287615606E+02  0.30321624995E+02 -0.65596857050E+03  0.65678394615E+03  0.00000000000E+00 0. -1.
<scales pt_clust_3="44.09025" pt_clust_4="44.09025" pt_clust_5="140.27911" pt_clust_6="32.71676"></scales>
<clustering>
<clus scale="   32.717">  2  6  1 -1</clus>
<clus scale="   44.090">  3  4 -1 -1</clus>
<clus scale="  140.279">  2  5  1 -1</clus>
<clus scale="  149.729">  1  3  2 -1</clus>
</clustering>
</event>
<event>
 6    0  0.1555973E+002  0.2342205E+03  0.7546771E-02  0.1123704E+00
         21   -1    0    0  503  501  0.00000000000E+00  0.00000000000E+00  0.12968629123E+03  0.12968629123E+03  0.00000000000E+00 0.  1.
         21   -1    0    0  506  502 -0.00000000000E+00 -0.00000000000E+00 -0.16641169613E+04  0.16641169613E+04  0.00000000000E+00 0. -1.
         21    1    1    2  503  502 -0.10681947320E+03 -0.18164435052E+03  0.12688273094E+02  0.21110675547E+03  0.00000000000E+00 0.  1.
         21    1    1    2  504  501 -0.11486645402E+02 -0.29227369253E+02 -0.45686906242E+02  0.55438935218E+02  0.00000000000E+00 0.  1.
         21    1    1    2  505  504  0.12171293690E+03  0.17735827742E+03 -0.91844270162E+03  0.94329581454E+03  0.00000000000E+00 0. -1.
         21    1    1    2  506  505 -0.34068183041E+01  0.33513442357E+02 -0.58298933535E+03  0.58396174734E+03  0.00000000000E+00 0. -1.
<scales pt_clust_3="14000.00000" pt_clust_4="31.40354" pt_clust_5="234.22045" pt_clust_6="33.57746"></scales>
<clustering>
<clus scale="   31.404">  1  4  2 -1</clus>
<clus scale="   33.577">  2  6  1 -1</clus>
<clus scale="  234.220">  2  5  1 -1</clus>
<clus scale="   31.404">  1  3  2 -1</clus>
</clustering>
</event>
<event>
 6    0  0.1555973E+002  0.1402986E+03  0.7546771E-02  0.1212928E+00
         21   -1    0    0  504  501  0.00000000000E+00  0.00000000000E+00  0.63915234579E+03  0.63915234579E+03  0.00000000000E+00 0. -1.
         21   -1    0    0  503  502 -0.00000000000E+00 -0.00000000000E+00 -0.28593611995E+03  0.28593611995E+03  0.00000000000E+00 0. -1.
         21    1    1    2  503  505  0.35213284207E+02 -0.13004727450E+03 -0.24970970291E+03  0.28373791554E+03  0.00000000000E+00 0. -1.
         21    1    1    2  504  502  0.60386565252E+02  0.79476657381E+02  0.24977492626E+03  0.26898065008E+03  0.00000000000E+00 0. -1.
         21    1    1    2  505  506 -0.59274540724E+02  0.42249875947E+02  0.16174117478E+03  0.17736609263E+03  0.00000000000E+00 0.  1.
         21    1    1    2  506  501 -0.36325308736E+02  0.83207411697E+01  0.19140982771E+03  0.19500380748E+03  0.00000000000E+00 0. -1.
<scales pt_clust_3="132.04811" pt_clust_4="99.81521" pt_clust_5="33.91714" pt_clust_6="33.91714"></scales>
<clustering>
<clus scale="   33.917">  5  6 -1 -1</clus>
<clus scale="   99.815">  1  4  2 -1</clus>
<clus scale="  132.048">  2  3  1 -1</clus>
<clus scale="   99.815">  1  3  2 -1</clus>
</clustering>
</event>
<event>
 6    0  0.1555973E+002  0.1251402E+03  0.7546771E-02  0.1234850E+00
         21   -1    0    0  505  501  0.00000000000E+00  0.00000000000E+00  0.64196220843E+03  0.64196220843E+03  0.00000000000E+00 0. -1.
         21   -1    0    0  506  502 -0.00000000000E+00 -0.00000000000E+00 -0.44389637541E+03  0.44389637541E+03  0.00000000000E+00 0. -1.
         21    1    1    2  503  501 -0.43728584629E+02  0.37378731056E+02  0.10155296410E+03  0.11671487980E+03  0.00000000000E+00 0. -1.
         21    1    1    2  504  502  0.59489699236E+01 -0.68594685141E+02 -0.39826322726E+03  0.40417102724E+03  0.00000000000E+00 0. -1.
         21    1    1    2  505  504  0.10761172526E+03  0.98831107617E+02  0.41254095455E+03  0.43765044320E+03  0.00000000000E+00 0. -1.
         21    1    1    2  506  503 -0.69832110557E+02 -0.67615153532E+02  0.82235141622E+02  0.12732223360E+03  0.00000000000E+00 0.  1.
<scales pt_clust_3="57.52703" pt_clust_4="68.62514" pt_clust_5="125.14018" pt_clust_6="14000.00000"></scales>
<clustering>
<clus scale="   57.527">  1  3  2 -1</clus>
<clus scale="   68.625">  2  4  1 -1</clus>
<clus scale="  125.140">  1  5  2 -1</clus>
<clus scale="   57.527">  1  3  2 -1</clus>
</clustering>
</event>
<event>
 6    0  0.1555973E+002  0.1216485E+03  0.7546771E-02  0.1240402E+00
         21   -1    0    0  504  501  0.00000000000E+00  0.00000000000E+00  0.30772002794E+03  0.30772002794E+03  0.00000000000E+00 0. -1.
         21   -1    0    0  506  502 -0.00000000000E+00 -0.00000000000E+00 -0.19474073693E+03  0.19474073693E+03  0.00000000000E+00 0. -1.
         21    1    1    2  503  502 -0.13339592509E+03  0.27371026249E+02 -0.13651032609E+03  0.19281782863E+03  0.00000000000E+00 0. -1.
         21    1    1    2  504  503  0.75538486420E+02  0.35376199700E+02  0.84760999342E+02  0.11891999599E+03  0.00000000000E+00 0. -1.
         21    1    1    2  505  501  0.34162475715E+02 -0.24686149628E+02  0.12085351638E+03  0.12799239489E+03  0.00000000000E+00 0. -1.
         21    1    1    2  506  505  0.23694962956E+02 -0.38061076321E+02  0.43875101380E+02  0.62730545361E+02  0.00000000000E+00 0. -1.
<scales pt_clust_3="14000.00000" pt_clust_4="121.64850" pt_clust_5="42.14832" pt_clust_6="56.37001"></scales>
<clustering>
<clus scale="   42.148">  1  5  2 -1</clus>
<clus scale="   56.370">  1  6  2 -1</clus>
<clus scale="  121.649">  1  4  2 -1</clus>
<clus scale="   42.148">  1  3  2 -1</clus>
</clustering>
</event>
<event>
 6    0  0.1555973E+002  0.1265101E+03  0.7546771E-02  0.1232728E+00
         21   -1    0    0  504  501  0.00000000000E+00  0.00000000000E+00  0.39372794963E+03  0.39372794963E+03  0.00000000000E+00 0.  1.
         21   -1    0    0  505  502 -0.00000000000E+00 -0.00000000000E+00 -0.18740784857E+03  0.18740784857E+03  0.00000000000E+00 0. -1.
         21    1    1    2  503  501 -0.10282008274E+03  0.55622939533E+02  0.22353680949E+03  0.25225896617E+03  0.00000000000E+00 0.  1.
         21    1    1    2  504  502  0.12017187569E+02  0.61250669753E+02  0.97919394056E+02  0.11612176831E+03  0.00000000000E+00 0.  1.
         21    1    1    2  505  506  0.44099074725E+02 -0.22045783254E+02 -0.92253760027E+02  0.10460163091E+03  0.00000000000E+00 0. -1.
         21    1    1    2  506  503  0.46703820442E+02 -0.94827826032E+02 -0.22882342453E+02  0.10815343282E+03  0.00000000000E+00 0. -1.
<scales pt_clust_3="126.51012" pt_clust_4="61.26717" pt_clust_5="49.30259" pt_clust_6="14000.00000"></scales>
<clustering>
<clus scale="   49.303">  2  5  1 -1</clus>
<clus scale="   61.267">  1  4  2 -1</clus>
<clus scale="  126.510">  1  3  2 -1</clus>
<clus scale="   61.267">  1  3  2 -1</clus>
</clustering>
</event>
<event>
 6    0  0.1555973E+002  0.9585541E+02  0.7546771E-02  0.1289261E+00
         21   -1    0    0  506  501  0.00000000000E+00  0.00000000000E+00  0.11805025324E+04  0.11805025324E+04  0.00000000000E+00 0. -1.
         21   -1    0    0  503  502 -0.00000000000E+00 -0.00000000000E+00 -0.63467730054E+02  0.63467730054E+02  0.00000000000E+00 0. -1.
         21    1    1    2  503  501  0.32894844830E+02  0.14328913059E+02  0.53628403231E+03  0.53748297822E+03  0.00000000000E+00 0. -1.
         21    1    1    2  504  502  0.52473764339E+02  0.13132218828E+02 -0.15605240276E+02  0.56298087351E+02  0.00000000000E+00 0. -1.
         21    1    1    2  505  504 -0.14947820224E+03 -0.56530893962E+01  0.20932840289E+03  0.25728208376E+03  0.00000000000E+00 0. -1.
         21    1    1    2  506  505  0.64109593071E+02 -0.21808042491E+02  0.38702760745E+03  0.39290711316E+03  0.00000000000E+00 0. -1.
<scales pt_clust_3="35.88020" pt_clust_4="55.21113" pt_clust_5="95.85541" pt_clust_6="14000.00000"></scales>
<clustering>
<clus scale="   35.880">  1  3  2 -1</clus>
<clus scale="   55.211">  2  4  1 -1</clus>
<clus scale="   95.855">  2  5  1 -1</clus>
<clus scale="   35.880">  1  3  2 -1</clus>
</clustering>
</event>
<event>
 6    0  0.1555973E+002  0.1201587E+03  0.7546771E-02  0.1242835E+00
         21   -1    0    0  505  501  0.00000000000E+00  0.00000000000E+00  0.13351061596E+02  0.13351061596E+02  0.00000000000E+00 0.  1.
         21   -1    0    0  504  502 -0.00000000000E+00 -0.00000000000E+00 -0.23897856692E+04  0.23897856692E+04  0.00000000000E+00 0.  1.
         21    1    1    2  503  506  0.16074407841E+02 -0.38542496883E+02 -0.30964428643E+03  0.31244758724E+03  0.00000000000E+00 0. -1.
         21    1    1    2  504  503 -0.54171232834E+01  0.14133984153E+03 -0.16894535993E+04  0.16953641969E+04  0.00000000000E+00 0.  1.
         21    1    1    2  505  502  0.96980653042E+01 -0.61391426197E+02 -0.13479872474E+03  0.14843738030E+03  0.00000000000E+00 0.  1.
         21    1    1    2  506  501 -0.20355349861E+02 -0.41405918454E+02 -0.24253799715E+03  0.24688756634E+03  0.00000000000E+00 0. -1.
<scales pt_clust_3="37.33994" pt_clust_4="113.56781" pt_clust_5="62.15271" pt_clust_6="37.33994"></scales>
<clustering>
<clus scale="   37.340">  3  6 -1 -1</clus>
<clus scale="   62.153">  1  5  2 -1</clus>
<clus scale="  113.568">  2  4  1 -1</clus>
<clus scale="   62.153">  1  3  2 -1</clus>
</clustering>
</event>
<event>
 6    0  0.1555973E+002  0.1315074E+03  0.7546771E-02  0.1225236E+00
         21   -1    0    0  503  501  0.00000000000E+00  0.00000000000E+00  0.52863980797E+03  0.52863980797E+03  0.00000000000E+00 0. -1.
         21   -1    0    0  506  502 -0.00000000000E+00 -0.00000000000E+00 -0.40653399524E+03  0.40653399524E+03  0.00000000000E+00 0. -1.
         21    1    1    2  503  504  0.11862933546E+03  0.26677087825E+02  0.47267554171E+03  0.48806429288E+03  0.00000000000E+00 0. -1.
         21    1    1    2  504  502  0.16329378608E+02  0.25380956222E+02 -0.27620159216E+03  0.27784557052E+03  0.00000000000E+00 0. -1.
         21    1    1    2  505  501 -0.90279229307E+02 -0.39341614376E+02 -0.25263412301E+02  0.10166780153E+03  0.00000000000E+00 0.  1.
         21    1    1    2  506  505 -0.44679484763E+02 -0.12716429671E+02 -0.49104724522E+02  0.67596138297E+02  0.00000000000E+00 0.  1.
<scales pt_clust_3="122.87567" pt_clust_4="30.18015" pt_clust_5="30.77772" pt_clust_6="30.77772"></scales>
<clustering>
<clus scale="   30.180">  2  4  1 -1</clus>
<clus scale="   30.778">  5  6 -1 -1</clus>
<clus scale="  122.876">  1  3  2 -1</clus>
<clus scale="  122.876">  1  3  2 -1</clus>
</clustering>
</event>
<event>
 6    0  0.1555973E+002  0.1671249E+03  0.7546771E-02  0.1180880E+00
         21   -1    0    0  506  501  0.00000000000E+00  0.00000000000E+00  0.12961030073E+03  0.12961030073E+03  0.00000000000E+00 0. -1.
         21   -1    0    0  504  502 -0.00000000000E+00 -0.00000000000E+00 -0.51770660310E+03  0.51770660310E+03  0.00000000000E+00 0.  1.
         21    1    1    2  503  501  0.28572400294E+02 -0.14249208474E+03 -0.30748451931E+03  0.34009867081E+03  0.00000000000E+00 0.  1.
         21    1    1    2  504  503 -0.20312102230E+02 -0.25098864344E+02 -0.12613038591E+03  0.13019757578E+03  0.00000000000E+00 0.  1.
         21    1    1    2  505  502  0.34252069830E+01  0.81233064501E+02  0.65772161693E+01  0.81570843955E+02  0.00000000000E+00 0. -1.
         21    1    1    2  506  505 -0.11685505048E+02  0.86357884583E+02  0.38941386690E+02  0.95449813280E+02  0.00000000000E+00 0. -1.
<scales pt_clust_3="163.77216" pt_clust_4="32.28830" pt_clust_5="32.17248" pt_clust_6="32.17248"></scales>
<clustering>
<clus scale="   32.172">  5  6 -1 -1</clus>
<clus scale="   32.288">  2  4  1 -1</clus>
<clus scale="  163.772">  2  3  1 -1</clus>
<clus scale="  167.125">  1  3  2 -1</clus>
</clustering>
</event>
<event>
 6    0  0.1555973E+002  0.9464916E+02  0.7546771E-02  0.1291968E+00
         21   -1    0    0  503  501  0.00000000000E+00  0.00000000000E+00  0.91728631020E+03  0.91728631020E+03  0.00000000000E+00 0.  1.
         21   -1    0    0  505  502 -0.00000000000E+00 -0.00000000000E+00 -0.10289739244E+03  0.10289739244E+03  0.00000000000E+00 0.  1.
         21    1    1    2  503  506  0.20194568581E+01 -0.85455523826E+02  0.27098567825E+03  0.28414778298E+03  0.00000000000E+00 0.  1.
         21    1    1    2  504  501  0.80662304722E+02  0.17036951400E+02  0.30944196655E+03  0.32023584399E+03  0.00000000000E+00 0.  1.
         21    1    1    2  505  504 -0.28583355700E+02  0.14455518735E+03  0.27638905846E+03  0.31321577554E+03  0.00000000000E+00 0.  1.
         21    1    1    2  506  502 -0.54098405880E+02 -0.76136614925E+02 -0.42427785495E+02  0.10258430013E+03  0.00000000000E+00 0.  1.
<scales pt_clust_3="86.93687" pt_clust_4="82.44189" pt_clust_5="14000.00000" pt_clust_6="94.64916"></scales>
<clustering>
<clus scale="   82.442">  1  4  2 -1</clus>
<clus scale="   86.937">  1  3  2 -1</clus>
<clus scale="   94.649">  2  6  1 -1</clus>
<clus scale="   82.442">  1  3  2 -1</clus>
</clustering>
</event>
<event>
 6    0  0.1555973E+002  0.8036585E+02  0.7546771E-02  0.1328016E+00
         21   -1    0    0  504  501  0.00000000000E+00  0.00000000000E+00  0.57515603682E+03  0.57515603682E+03  0.00000000000E+00 0.  1.
         21   -1    0    0  503  502 -0.00000000000E+00 -0.00000000000E+00 -0.10116612304E+03  0.10116612304E+03  0.00000000000E+00 0.  1.
         21    1    1    2  503  505 -0.24593449252E+02  0.27007665169E+02  0.25896064424E+02  0.44775639321E+02  0.00000000000E+00 0.  1.
         21    1    1    2  504  506  0.15876252919E+02  0.40701720776E+02  0.16340960519E+03  0.16914900103E+03  0.00000000000E+00 0.  1.
         21    1    1    2  505  501 -0.39586095849E+02 -0.11395797700E+03  0.34921513726E+03  0.36946541326E+03  0.00000000000E+00 0.  1.
         21    1    1    2  506  502  0.48303292182E+02  0.46248591054E+02 -0.64530893087E+02  0.92932106253E+02  0.00000000000E+00 0.  1.
<scales pt_clust_3="36.52741" pt_clust_4="44.20794" pt_clust_5="80.36585" pt_clust_6="14000.00000"></scales>
<clustering>
<clus scale="   36.527">  2  3  1 -1</clus>
<clus scale="   44.208">  1  4  2 -1</clus>
<clus scale="   80.366">  1  5  2 -1</clus>
<clus scale="   44.208">  1  3  2 -1</clus>
</clustering>
</event>
<event>
 6    0  0.1555973E+002  0.9831787E+02  0.7546771E-02  0.1283874E+00
         21   -1    0    0  503  501  0.00000000000E+00  0.00000000000E+00  0.15972008552E+03  0.15972008552E+03  0.00000000000E+00 0.  1.
         21   -1    0    0  504  502 -0.00000000000E+00 -0.00000000000E+00 -0.45965570215E+03  0.45965570215E+03  0.00000000000E+00 0.  1.
         21    1    1    2  503  505  0.29992849774E+02 -0.24651816350E+02  0.17958864720E+02  0.42776207277E+02  0.00000000000E+00 0.  1.
         21    1    1    2  504  501 -0.68084522337E+02 -0.69020244500E+01 -0.64128027540E+02  0.93784561840E+02  0.00000000000E+00 0.  1.
         21    1    1    2  505  506  0.81703483205E+02  0.66690441768E+02  0.87466734392E+02  0.13701643630E+03  0.00000000000E+00 0.  1.
         21    1    1    2  506  502 -0.43611810642E+02 -0.35136600968E+02 -0.34123318820E+03  0.34579858225E+03  0.00000000000E+00 0.  1.
<scales pt_clust_3="38.82374" pt_clust_4="14000.00000" pt_clust_5="98.31787" pt_clust_6="55.86989"></scales>
<clustering>
<clus scale="   38.824">  1  3  2 -1</clus>
<clus scale="   55.870">  2  6  1 -1</clus>
<clus scale="   98.318">  1  5  2 -1</clus>
<clus scale="   38.824">  1  3  2 -1</clus>
</clustering>
</event>
<event>
 6    0  0.1555973E+002  0.1082497E+03  0.7546771E-02  0.1263846E+00
         21   -1    0    0  503  501  0.00000000000E+00  0.00000000000E+00  0.10127977259E+03  0.10127977259E+03  0.00000000000E+00 0. -1.
         21   -1    0    0  505  502 -0.00000000000E+00 -0.00000000000E+00 -0.78701535218E+03  0.78701535218E+03  0.00000000000E+00 0.  1.
         21    1    1    2  503  506 -0.50344556809E+02  0.17768810752E+02 -0.92520084252E+01  0.54183989293E+02  0.00000000000E+00 0. -1.
         21    1    1    2  504  502 -0.20409043343E+02 -0.10549392636E+03 -0.63236687953E+03  0.64143071947E+03  0.00000000000E+00 0.  1.
         21    1    1    2  505  501  0.10388193352E+03  0.10004708797E+03 -0.11663789559E+02  0.14469595678E+03  0.00000000000E+00 0. -1.
         21    1    1    2  506  504 -0.33128333365E+02 -0.12321972359E+02 -0.32452902075E+02  0.47984459229E+02  0.00000000000E+00 0. -1.
<scales pt_clust_3="93.26892" pt_clust_4="14000.00000" pt_clust_5="108.24970" pt_clust_6="33.56503"></scales>
<clustering>
<clus scale="   33.565">  3  6 -1 -1</clus>
<clus scale="   93.269">  1  3  2 -1</clus>
<clus scale="  108.250">  1  5  2 -1</clus>
<clus scale="   93.269">  1  3  2 -1</clus>
</clustering>
</event>
<event>
 6    0  0.1555973E+002  0.1057360E+03  0.7546771E-02  0.1268676E+00
         21   -1    0    0  503  501  0.00000000000E+00  0.00000000000E+00  0.19014293222E+03  0.19014293222E+03  0.00000000000E+00 0.  1.
         21   -1    0    0  506  502 -0.00000000000E+00 -0.00000000000E+00 -0.66625602048E+03  0.66625602048E+03  0.00000000000E+00 0.  1.
         21    1    1    2  503  505  0.50181188069E+02 -0.83387424079E+02  0.84525074261E+02  0.12890346120E+03  0.00000000000E+00 0.  1.
         21    1    1    2  504  501 -0.56167411707E+02 -0.25884032836E+02  0.74714787624E+01  0.62294335927E+02  0.00000000000E+00 0.  1.
         21    1    1    2  505  502  0.10693075866E+03  0.12554092080E+03 -0.11586615160E+03  0.20154323365E+03  0.00000000000E+00 0.  1.
         21    1    1    2  506  504 -0.10094453502E+03 -0.16269463890E+02 -0.45224348968E+03  0.46365792193E+03  0.00000000000E+00 0.  1.
<scales pt_clust_3="101.83824" pt_clust_4="61.84465" pt_clust_5="105.73603" pt_clust_6="14000.00000"></scales>
<clustering>
<clus scale="   61.845">  1  4  2 -1</clus>
<clus scale="  101.838">  1  3  2 -1</clus>
<clus scale="  105.736">  1  5  2 -1</clus>
<clus scale="   61.845">  1  3  2 -1</clus>
</clustering>
</event>
<event>
 6    0  0.1555973E+002  0.2031759E+03  0.7546771E-02  0.1147087E+00
         21   -1    0    0  503  501  0.00000000000E+00  0.00000000000E+00  0.34785259346E+03  0.34785259346E+03  0.00000000000E+00 0. -1.
         21   -1    0    0  506  502 -0.00000000000E+00 -0.00000000000E+00 -0.64310045240E+03  0.64310045240E+03  0.00000000000E+00 0.  1.
         21    1    1    2  503  505  0.75064383877E+02 -0.22612979125E+03  0.18258464683E+02  0.23896174537E+03  0.00000000000E+00 0. -1.
         21    1    1    2  504  501 -0.38214945500E+02  0.95843463606E+02  0.79727605493E+02  0.13039494873E+03  0.00000000000E+00 0. -1.
         21    1    1    2  505  502 -0.35307957313E+02  0.46062325921E+02 -0.48992886085E+03  0.49335451595E+03  0.00000000000E+00 0.  1.
         21    1    1    2  506  504 -0.15414810641E+01  0.84224001720E+02  0.96694931730E+02  0.12824183581E+03  0.00000000000E+00 0. -1.
<scales pt_clust_3="198.78944" pt_clust_4="37.94076" pt_clust_5="58.03783" pt_clust_6="37.94076"></scales>
<clustering>
<clus scale="   37.941">  4  6 -1 -1</clus>
<clus scale="   58.038">  2  5  1 -1</clus>
<clus scale="  198.789">  2  3  1 -1</clus>
<clus scale="  203.176">  1  3  2 -1</clus>
</clustering>
</event>
<event>
 6    0  0.1555973E+002  0.1145252E+03  0.7546771E-02  0.1252412E+00
         21   -1    0    0  505  501  0.00000000000E+00  0.00000000000E+00  0.74262871595E+02  0.74262871595E+02  0.00000000000E+00 0.  1.
         21   -1    0    0  503  502 -0.00000000000E+00 -0.00000000000E+00 -0.12597386822E+04  0.12597386822E+04  0.00000000000E+00 0. -1.
         21    1    1    2  503  506 -0.30233255319E+02 -0.25039032237E+02 -0.88820846443E+03  0.88907551938E+03  0.00000000000E+00 0. -1.
         21    1    1    2  504  501  0.12003987541E+03  0.51123369399E+02 -0.14504168326E+01  0.13048093461E+03  0.00000000000E+00 0.  1.
         21    1    1    2  505  502 -0.22149463276E+02 -0.30183314783E+02 -0.82011165515E+02  0.90152440255E+02  0.00000000000E+00 0.  1.
         21    1    1    2  506  504 -0.67657156815E+02  0.40989776214E+01 -0.21380576379E+03  0.22429265953E+03  0.00000000000E+00 0. -1.
<scales pt_clust_3="67.10483" pt_clust_4="14000.00000" pt_clust_5="37.43837" pt_clust_6="114.52518"></scales>
<clustering>
<clus scale="   37.438">  2  5  1 -1</clus>
<clus scale="   67.105">  2  3  1 -1</clus>
<clus scale="  114.525">  2  6  1 -1</clus>
<clus scale="  114.525">  1  3  2 -1</clus>
</clustering>
</event>
<event>
 6    0  0.1555973E+002  0.2062814E+03  0.7546771E-02  0.1144545E+00
         21   -1    0    0  505  501  0.00000000000E+00  0.00000000000E+00  0.48218597383E+03  0.48218597383E+03  0.00000000000E+00 0. -1.
         21   -1    0    0  503  502 -0.00000000000E+00 -0.00000000000E+00 -0.31985073447E+03  0.31985073447E+03  0.00000000000E+00 0.  1.
         21    1    1    2  503  506 -0.29780649892E+02  0.69276453655E+02  0.18744681932E+02  0.77701204880E+02  0.00000000000E+00 0. -1.
         21    1    1    2  504  501 -0.47313441768E+02  0.40080394761E+02  0.27505695753E+03  0.28195980157E+03  0.00000000000E+00 0. -1.
         21    1    1    2  505  502  0.10064426700E+03 -0.17759930544E+03 -0.23808447932E+03  0.31361600895E+03  0.00000000000E+00 0.  1.
         21    1    1    2  506  504 -0.23550175344E+02  0.68242457026E+02  0.10661807922E+03  0.12875969290E+03  0.00000000000E+00 0. -1.
<scales pt_clust_3="66.14364" pt_clust_4="62.00806" pt_clust_5="193.38403" pt_clust_6="66.14364"></scales>
<clustering>
<clus scale="   62.008">  1  4  2 -1</clus>
<clus scale="   66.144">  3  6 -1 -1</clus>
<clus scale="  193.384">  2  5  1 -1</clus>
<clus scale="   62.008">  1  3  2 -1</clus>
</clustering>
</event>
<event>
 6    0  0.1555973E+002  0.1103118E+03  0.7546771E-02  0.1259994E+00
         21   -1    0    0  503  501  0.00000000000E+00  0.00000000000E+00  0.73286509421E+02  0.73286509421E+02  0.00000000000E+00 0. -1.
         21   -1    0    0  505  502 -0.00000000000E+00 -0.00000000000E+00 -0.65036734858E+03  0.65036734858E+03  0.00000000000E+00 0.  1.
         21    1    1    2  503  506  0.48724942392E+02 -0.47170475319E+02 -0.90899686744E+01  0.68423689490E+02  0.00000000000E+00 0. -1.
         21    1    1    2  504  501 -0.36481535749E+02  0.14395389759E+02 -0.16851996056E+02  0.42686291335E+02  0.00000000000E+00 0.  1.
         21    1    1    2  505  504 -0.82776885881E+02  0.59331772163E+02 -0.52183456933E+03  0.53167996932E+03  0.00000000000E+00 0.  1.
         21    1    1    2  506  502  0.70533479238E+02 -0.26556686603E+02 -0.29304305095E+02  0.80863907856E+02  0.00000000000E+00 0. -1.
<scales pt_clust_3="32.22974" pt_clust_4="39.21900" pt_clust_5="104.94896" pt_clust_6="32.22974"></scales>
<clustering>
<clus scale="   32.230">  3  6 -1 -1</clus>
<clus scale="   39.219">  1  4  2 -1</clus>
<clus scale="  104.949">  2  5  1 -1</clus>
<clus scale="   39.219">  1  3  2 -1</clus>
</clustering>
</event>
<event>
 6    0  0.1555973E+002  0.1252721E+03  0.7546771E-02  0.1234645E+00
         21   -1    0    0  505  501  0.00000000000E+00  0.00000000000E+00  0.68418859886E+03  0.68418859886E+03  0.00000000000E+00 0.  1.
         21   -1    0    0  506  502 -0.00000000000E+00 -0.00000000000E+00 -0.19291011328E+03  0.19291011328E+03  0.00000000000E+00 0.  1.
         21    1    1    2  503  501 -0.14386445673E+03  0.12113646938E+03  0.30900814891E+03  0.36174170650E+03  0.00000000000E+00 0.  1.
         21    1    1    2  504  502  0.88059232746E+02 -0.15619330159E+02  0.16885900104E+03  0.19108049136E+03  0.00000000000E+00 0.  1.
         21    1    1    2  505  504  0.11598316386E+02 -0.89797358574E+02  0.15257401536E+03  0.17741735178E+03  0.00000000000E+00 0.  1.
         21    1    1    2  506  503  0.44206907602E+02 -0.15719780650E+02 -0.13916267973E+03  0.14685916251E+03  0.00000000000E+00 0.  1.
<scales pt_clust_3="14000.00000" pt_clust_4="125.27215" pt_clust_5="96.39795" pt_clust_6="46.91868"></scales>
<clustering>
<clus scale="   46.919">  2  6  1 -1</clus>
<clus scale="   96.398">  1  5  2 -1</clus>
<clus scale="  125.272">  2  4  1 -1</clus>
<clus scale="   96.398">  1  3  2 -1</clus>
</clustering>
</event>
<event>
 6    0  0.1555973E+002  0.8827561E+02  0.7546771E-02  0.1307082E+00
         21   -1    0    0  503  501  0.00000000000E+00  0.00000000000E+00  0.62603547327E+03  0.62603547327E+03  0.00000000000E+00 0.  1.
         21   -1    0    0  504  502 -0.00000000000E+00 -0.00000000000E+00 -0.70418253457E+03  0.70418253457E+03  0.00000000000E+00 0. -1.
         21    1    1    2  503  505 -0.44945708687E+02  0.26914417722E+02  0.25683437189E+03  0.26212286660E+03  0.00000000000E+00 0.  1.
         21    1    1    2  504  506  0.26818371256E+02 -0.43931335368E+02 -0.67778044248E+03  0.67973194384E+03  0.00000000000E+00 0. -1.
         21    1    1    2  505  502  0.20285575156E+02 -0.65615941679E+02  0.52282756852E+02  0.86315948850E+02  0.00000000000E+00 0. -1.
         21    1    1    2  506  501 -0.21582377250E+01  0.82632859325E+02  0.29051625244E+03  0.30204724856E+03  0.00000000000E+00 0.  1.
<scales pt_clust_3="47.71287" pt_clust_4="51.47026" pt_clust_5="88.27561" pt_clust_6="14000.00000"></scales>
<clustering>
<clus scale="   51.470">  2  4  1 -1</clus>
<clus scale="   47.713">  1  3  2 -1</clus>
<clus scale="   88.276">  2  5  1 -1</clus>
<clus scale="   47.713">  1  3  2 -1</clus>
</clustering>
</event>
<event>
 6    0  0.1555973E+002  0.1102284E+03  0.7546771E-02  0.1260147E+00
         21   -1    0    0  503  501  0.00000000000E+00  0.00000000000E+00  0.11936501769E+04  0.11936501769E+04  0.00000000000E+00 0.  1.
         21   -1    0    0  504  502 -0.00000000000E+00 -0.00000000000E+00 -0.78721625139E+02  0.78721625139E+02  0.00000000000E+00 0.  1.
         21    1    1    2  503  505  0.17116247513E+02 -0.33505962103E+02  0.27320345990E+03  0.27578206237E+03  0.00000000000E+00 0.  1.
         21    1    1    2  504  506 -0.68485486910E+02  0.69850706830E+02  0.50518850417E+03  0.51457245156E+03  0.00000000000E+00 0.  1.
         21    1    1    2  505  502  0.53535583017E+02 -0.74956205516E+02 -0.42195373739E+02  0.10131604493E+03  0.00000000000E+00 0.  1.
         21    1    1    2  506  501 -0.21663436198E+01  0.38611460789E+02  0.37873196143E+03  0.38070124318E+03  0.00000000000E+00 0. -1.
<scales pt_clust_3="37.62467" pt_clust_4="36.89794" pt_clust_5="93.30827" pt_clust_6="36.89794"></scales>
<clustering>
<clus scale="   36.898">  4  6 -1 -1</clus>
<clus scale="   37.625">  1  3  2 -1</clus>
<clus scale="   93.308">  2  5  1 -1</clus>
<clus scale="   37.625">  1  3  2 -1</clus>
</clustering>
</event>
<event>
 6    0  0.1555973E+002  0.1024402E+03  0.7546771E-02  0.1275247E+00
         21   -1    0    0  506  501  0.00000000000E+00  0.00000000000E+00  0.62641464913E+03  0.62641464913E+03  0.00000000000E+00 0. -1.
         21   -1    0    0  503  502 -0.00000000000E+00 -0.00000000000E+00 -0.23157068615E+03  0.23157068615E+03  0.00000000000E+00 0. -1.
         21    1    1    2  503  505  0.23351932307E+02 -0.31645159109E+02  0.10392971234E+02  0.40678528594E+02  0.00000000000E+00 0. -1.
         21    1    1    2  504  501  0.41088168832E+02 -0.80275804314E+01  0.36799659754E+03  0.37037032207E+03  0.00000000000E+00 0. -1.
         21    1    1    2  505  504  0.50379465879E+02 -0.15600427813E+02  0.20927167305E+03  0.21581496026E+03  0.00000000000E+00 0. -1.
         21    1    1    2  506  502 -0.11481956702E+03  0.55273167353E+02 -0.19281727885E+03  0.23112152436E+03  0.00000000000E+00 0. -1.
<scales pt_clust_3="39.32847" pt_clust_4="33.92571" pt_clust_5="33.92571" pt_clust_6="95.10035"></scales>
<clustering>
<clus scale="   33.926">  4  5 -1 -1</clus>
<clus scale="   39.328">  2  3  1 -1</clus>
<clus scale="   95.100">  2  6  1 -1</clus>
<clus scale="  102.440">  1  3  2 -1</clus>
</clustering>
</event>
<event>
 6    0  0.1555973E+002  0.1490769E+03  0.7546771E-02  0.1201612E+00
         21   -1    0    0  503  501  0.00000000000E+00  0.00000000000E+00  0.52643244376E+03  0.52643244376E+03  0.00000000000E+00 0.  1.
         21   -1    0    0  506  502 -0.00000000000E+00 -0.00000000000E+00 -0.36614687827E+03  0.36614687827E+03  0.00000000000E+00 0.  1.
         21    1    1    2  503  504 -0.12362309312E+02 -0.40728213132E+02  0.26201169119E+03  0.26544630410E+03  0.00000000000E+00 0.  1.
         21    1    1    2  504  505  0.21382933047E+02 -0.43797762731E+02  0.81004805950E+02  0.94537042649E+02  0.00000000000E+00 0.  1.
         21    1    1    2  505  502 -0.14661879502E+03  0.40153469214E+02 -0.30659690555E+03  0.34221489540E+03  0.00000000000E+00 0.  1.
         21    1    1    2  506  501  0.13759817129E+03  0.44372506648E+02  0.12386597390E+03  0.19038107988E+03  0.00000000000E+00 0.  1.
<scales pt_clust_3="42.56306" pt_clust_4="59.94183" pt_clust_5="14000.00000" pt_clust_6="149.07688"></scales>
<clustering>
<clus scale="   42.563">  1  3  2 -1</clus>
<clus scale="   59.942">  1  4  2 -1</clus>
<clus scale="  149.077">  1  6  2 -1</clus>
<clus scale="   42.563">  1  3  2 -1</clus>
</clustering>
</event>
<event>
 6    0  0.1555973E+002  0.7376437E+02  0.7546771E-02  0.1347741E+00
         21   -1    0    0  506  501  0.00000000000E+00  0.00000000000E+00  0.31671238427E+02  0.31671238427E+02  0.00000000000E+00 0.  1.
         21   -1    0    0  505  502 -0.00000000000E+00 -0.00000000000E+00 -0.21966084309E+04  0.21966084309E+04  0.00000000000E+00 0.  1.
         21    1    1    2  503  502 -0.30835301377E+02 -0.66858966475E+02 -0.17715927846E+04  0.17731220859E+04  0.00000000000E+00 0.  1.
         21    1    1    2  504  503 -0.34958366115E+02 -0.49816838815E+02 -0.19876740446E+03  0.20787565001E+03  0.00000000000E+00 0. -1.
         21    1    1    2  505  501  0.53520881075E+02  0.60457204112E+02 -0.59011612943E+02  0.10000964305E+03  0.00000000000E+00 0.  1.
         21    1    1    2  506  504  0.12272786417E+02  0.56218601177E+02 -0.13556539044E+03  0.14727229029E+03  0.00000000000E+00 0. -1.
<scales pt_clust_3="14000.00000" pt_clust_4="51.64725" pt_clust_5="73.76437" pt_clust_6="57.54261"></scales>
<clustering>
<clus scale="   57.543">  1  6  2 -1</clus>
<clus scale="   51.647">  1  4  2 -1</clus>
<clus scale="   73.764">  1  5  2 -1</clus>
<clus scale="   57.543">  1  3  2 -1</clus>
</clustering>
</event>
<event>
 6    0  0.1555973E+002  0.1460575E+03  0.7546771E-02  0.1205403E+00
         21   -1    0    0  505  501  0.00000000000E+00  0.00000000000E+00  0.37483590862E+03  0.37483590862E+03  0.00000000000E+00 0. -1.
         21   -1    0    0  506  502 -0.00000000000E+00 -0.00000000000E+00 -0.13275897606E+03  0.13275897606E+03  0.00000000000E+00 0.  1.
         21    1    1    2  503  502 -0.54074761791E+02  0.27875466049E+02 -0.39838961523E+02  0.72720453282E+02  0.00000000000E+00 0.  1.
         21    1    1    2  504  503 -0.31031095924E+02  0.12985841550E+03  0.11468872584E+03  0.17601034295E+03  0.00000000000E+00 0.  1.
         21    1    1    2  505  504  0.34129954914E+02 -0.26886305128E+01  0.25211335963E+02  0.42516985047E+02  0.00000000000E+00 0. -1.
         21    1    1    2  506  501  0.50975902802E+02 -0.15504525103E+03  0.14201583227E+03  0.21634710340E+03  0.00000000000E+00 0. -1.
<scales pt_clust_3="59.31814" pt_clust_4="146.05753" pt_clust_5="34.23569" pt_clust_6="14000.00000"></scales>
<clustering>
<clus scale="   34.236">  1  5  2 -1</clus>
<clus scale="   59.318">  2  3  1 -1</clus>
<clus scale="  146.058">  1  4  2 -1</clus>
<clus scale="   34.236">  1  3  2 -1</clus>
</clustering>
</event>
<event>
 6    0  0.1555973E+002  0.1327409E+03  0.7546771E-02  0.1223445E+00
         21   -1    0    0  505  501  0.00000000000E+00  0.00000000000E+00  0.39067131638E+03  0.39067131638E+03  0.00000000000E+00 0.  1.
         21   -1    0    0  504  502 -0.00000000000E+00 -0.00000000000E+00 -0.38935971883E+03  0.38935971883E+03  0.00000000000E+00 0.  1.
         21    1    1    2  503  501 -0.29853038938E+02  0.14973029780E+03  0.26856750629E+03  0.30893182330E+03  0.00000000000E+00 0.  1.
         21    1    1    2  504  503  0.54923099167E+02 -0.61665585971E+02 -0.15468568176E+02  0.84014688696E+02  0.00000000000E+00 0.  1.
         21    1    1    2  505  506 -0.70409569330E+02 -0.90584748018E+02  0.15673541240E+02  0.11579621722E+03  0.00000000000E+00 0.  1.
         21    1    1    2  506  502  0.45339509101E+02  0.25200361886E+01 -0.26746088181E+03  0.27128830599E+03  0.00000000000E+00 0.  1.
<scales pt_clust_3="14000.00000" pt_clust_4="95.44328" pt_clust_5="132.74089" pt_clust_6="45.40949"></scales>
<clustering>
<clus scale="   45.409">  2  6  1 -1</clus>
<clus scale="   95.443">  2  4  1 -1</clus>
<clus scale="  132.741">  2  5  1 -1</clus>
<clus scale="  132.741">  1  3  2 -1</clus>
</clustering>
</event>
<event>
 6    0  0.1555973E+002  0.8739691E+02  0.7546771E-02  0.1309281E+00
         21   -1    0    0  505  501  0.00000000000E+00  0.00000000000E+00  0.74595949416E+03  0.74595949416E+03  0.00000000000E+00 0. -1.
         21   -1    0    0  506  502 -0.00000000000E+00 -0.00000000000E+00 -0.63480350464E+03  0.63480350464E+03  0.00000000000E+00 0.  1.
         21    1    1    2  503  502 -0.45332412252E+02  0.37941725297E+02 -0.61192444302E+03  0.61477323143E+03  0.00000000000E+00 0.  1.
         21    1    1    2  504  503 -0.71114984305E+02 -0.26267404303E+02  0.14289672155E+03  0.16176152370E+03  0.00000000000E+00 0. -1.
         21    1    1    2  505  504  0.90740826995E+02 -0.47344357875E+02  0.51833875088E+03  0.52834689984E+03  0.00000000000E+00 0. -1.
         21    1    1    2  506  501  0.25706569563E+02  0.35670036881E+02  0.61844960116E+02  0.75881343831E+02  0.00000000000E+00 0. -1.
<scales pt_clust_3="59.12192" pt_clust_4="14000.00000" pt_clust_5="87.39691" pt_clust_6="43.96793"></scales>
<clustering>
<clus scale="   43.968">  1  6  2 -1</clus>
<clus scale="   59.122">  2  3  1 -1</clus>
<clus scale="   87.397">  1  5  2 -1</clus>
<clus scale="   43.968">  1  3  2 -1</clus>
</clustering>
</event>
<event>
 6    0  0.1555973E+002  0.9538093E+02  0.7546771E-02  0.1290320E+00
         21   -1    0    0  506  501  0.00000000000E+00  0.00000000000E+00  0.63709828346E+03  0.63709828346E+03  0.00000000000E+00 0. -1.
         21   -1    0    0  503  502 -0.00000000000E+00 -0.00000000000E+00 -0.10481641097E+03  0.10481641097E+03  0.00000000000E+00 0.  1.
         21    1    1    2  503  504  0.47919617861E+01 -0.37557679551E+02  0.83483381230E+02  0.91667972229E+02  0.00000000000E+00 0. -1.
         21    1    1    2  504  501  0.33281775766E+02 -0.90859155449E+01  0.16915959049E+03  0.17264181856E+03  0.00000000000E+00 0. -1.
         21    1    1    2  505  502 -0.93874069429E+02 -0.24370112511E+02 -0.67984921133E+02  0.11844067205E+03  0.00000000000E+00 0.  1.
         21    1    1    2  506  505  0.55800331877E+02  0.71013707607E+02  0.34762382190E+03  0.35916423160E+03  0.00000000000E+00 0. -1.
<scales pt_clust_3="40.78809" pt_clust_4="34.49972" pt_clust_5="14000.00000" pt_clust_6="95.38093"></scales>
<clustering>
<clus scale="   34.500">  1  4  2 -1</clus>
<clus scale="   40.788">  1  3  2 -1</clus>
<clus scale="   95.381">  1  6  2 -1</clus>
<clus scale="   34.500">  1  3  2 -1</clus>
</clustering>
</event>
<event>
 6    0  0.1555973E+002  0.8923390E+02  0.7546771E-02  0.1304718E+00
         21   -1    0    0  503  501  0.00000000000E+00  0.00000000000E+00  0.23065736042E+03  0.23065736042E+03  0.00000000000E+00 0.  1.
         21   -1    0    0  504  502 -0.00000000000E+00 -0.00000000000E+00 -0.12582171797E+04  0.12582171797E+04  0.00000000000E+00 0. -1.
         21    1    1    2  503  506 -0.83167457651E+02 -0.30361643914E+02 -0.79636203197E+02  0.11908224172E+03  0.00000000000E+00 0. -1.
         21    1    1    2  504  505  0.27882379252E+01  0.53104944747E+02 -0.10273617328E+04  0.10287371090E+04  0.00000000000E+00 0. -1.
         21    1    1    2  505  501  0.99938353695E+02 -0.61951133003E+02  0.18926216386E+03  0.22281333912E+03  0.00000000000E+00 0.  1.
         21    1    1    2  506  502 -0.19559133970E+02  0.39207832171E+02 -0.10982404723E+03  0.11824185035E+03  0.00000000000E+00 0.  1.
<scales pt_clust_3="89.04439" pt_clust_4="89.23390" pt_clust_5="14000.00000" pt_clust_6="43.81568"></scales>
<clustering>
<clus scale="   43.816">  2  6  1 -1</clus>
<clus scale="   89.044">  1  3  2 -1</clus>
<clus scale="   89.234">  2  4  1 -1</clus>
<clus scale="   89.044">  1  3  2 -1</clus>
</clustering>
</event>
<event>
 6    0  0.1555973E+002  0.1049632E+03  0.7546771E-02  0.1270192E+00
         21   -1    0    0  504  501  0.00000000000E+00  0.00000000000E+00  0.99123622307E+03  0.99123622307E+03  0.00000000000E+00 0. -1.
         21   -1    0    0  505  502 -0.00000000000E+00 -0.00000000000E+00 -0.34766982095E+02  0.34766982095E+02  0.00000000000E+00 0. -1.
         21    1    1    2  503  501  0.38991363890E+02 -0.26207273996E+02  0.30119026434E+03  0.30483228667E+03  0.00000000000E+00 0. -1.
         21    1    1    2  504  506 -0.37505508003E+02 -0.84603354082E+02  0.22635302234E+03  0.24454055160E+03  0.00000000000E+00 0. -1.
         21    1    1    2  505  503  0.36808685088E+02  0.11267334626E+03  0.42114621623E+03  0.43750919728E+03  0.00000000000E+00 0. -1.
         21    1    1    2  506  502 -0.38294540975E+02 -0.18627181821E+01  0.77797380594E+01  0.39121169611E+02  0.00000000000E+00 0. -1.
<scales pt_clust_3="44.10274" pt_clust_4="104.96316" pt_clust_5="14000.00000" pt_clust_6="38.33982"></scales>
<clustering>
<clus scale="   38.340">  2  6  1 -1</clus>
<clus scale="   44.103">  1  3  2 -1</clus>
<clus scale="  104.963">  2  4  1 -1</clus>
<clus scale="   44.103">  1  3  2 -1</clus>
</clustering>
</event>
<event>
 6    0  0.1555973E+002  0.9085918E+02  0.7546771E-02  0.1300784E+00
         21   -1    0    0  504  501  0.00000000000E+00  0.00000000000E+00  0.35458529692E+02  0.35458529692E+02  0.00000000000E+00 0. -1.
         21   -1    0    0  503  502 -0.00000000000E+00 -0.00000000000E+00 -0.15084198691E+04  0.15084198691E+04  0.00000000000E+00 0. -1.
         21    1    1    2  503  501  0.13325440711E+03  0.33884842761E+01 -0.29820686480E+03  0.32664285244E+03  0.00000000000E+00 0. -1.
         21    1    1    2  504  506 -0.57975554592E+02 -0.46467014354E+02 -0.10469110178E+03  0.12837669238E+03  0.00000000000E+00 0. -1.
         21    1    1    2  505  502 -0.20044722122E+02  0.11021926210E+03 -0.68521142739E+03  0.69430884831E+03  0.00000000000E+00 0. -1.
         21    1    1    2  506  505 -0.55234130393E+02 -0.67140732024E+02 -0.38485194545E+03  0.39455000567E+03  0.00000000000E+00 0. -1.
<scales pt_clust_3="101.37668" pt_clust_4="74.29905" pt_clust_5="90.85918" pt_clust_6="14000.00000"></scales>
<clustering>
<clus scale="   74.299">  1  4  2 -1</clus>
<clus scale="  101.377">  1  3  2 -1</clus>
<clus scale="   90.859">  2  5  1 -1</clus>
<clus scale="   74.299">  1  3  2 -1</clus>
</clustering>
</event>
<event>
 6    0  0.1555973E+002  0.1317334E+03  0.7546771E-02  0.1224906E+00
         21   -1    0    0  506  501  0.00000000000E+00  0.00000000000E+00  0.22804241014E+02  0.22804241014E+02  0.00000000000E+00 0.  1.
         21   -1    0    0  503  502 -0.00000000000E+00 -0.00000000000E+00 -0.27601665040E+04  0.27601665040E+04  0.00000000000E+00 0. -1.
         21    1    1    2  503  504 -0.91983999471E+02 -0.10236556853E+03 -0.23457374236E+04  0.23497710157E+04  0.00000000000E+00 0. -1.
         21    1    1    2  504  505  0.36079778951E+02 -0.14169627426E+02 -0.62652432097E+02  0.73673984813E+02  0.00000000000E+00 0.  1.
         21    1    1    2  505  501  0.31309209185E+02  0.14417669998E+02 -0.13046274195E+03  0.13493947838E+03  0.00000000000E+00 0. -1.
         21    1    1    2  506  502  0.24595011335E+02  0.10211752596E+03 -0.19850966527E+03  0.22458626605E+03  0.00000000000E+00 0.  1.
<scales pt_clust_3="131.73340" pt_clust_4="45.64800" pt_clust_5="34.46935" pt_clust_6="14000.00000"></scales>
<clustering>
<clus scale="   34.469">  1  5  2 -1</clus>
<clus scale="   45.648">  1  4  2 -1</clus>
<clus scale="  131.733">  2  3  1 -1</clus>
<clus scale="   34.469">  1  3  2 -1</clus>
</clustering>
</event>
<event>
 6    0  0.1555973E+002  0.1018262E+03  0.7546771E-02  0.1276502E+00
         21   -1    0    0  504  501  0.00000000000E+00  0.00000000000E+00  0.24115852438E+03  0.24115852438E+03  0.00000000000E+00 0. -1.
         21   -1    0    0  501  502 -0.00000000000E+00 -0.00000000000E+00 -0.70391127394E+03  0.70391127394E+03  0.00000000000E+00 0.  1.
         21    1    1    2  503  506 -0.86792965557E+02 -0.15097147889E+02  0.76445767304E+02  0.11664003636E+03  0.00000000000E+00 0. -1.
         21    1    1    2  504  503  0.42986970230E+02 -0.24728080275E+02 -0.92792452670E+01  0.50452571356E+02  0.00000000000E+00 0.  1.
         21    1    1    2  505  502 -0.29016229695E+02  0.98488364847E+02 -0.63156720782E+03  0.63985860750E+03  0.00000000000E+00 0.  1.
         21    1    1    2  506  505  0.72822225022E+02 -0.58663136683E+02  0.10164793622E+03  0.13811858311E+03  0.00000000000E+00 0. -1.
<scales pt_clust_3="72.75203" pt_clust_4="49.59191" pt_clust_5="101.82622" pt_clust_6="14000.00000"></scales>
<clustering>
<clus scale="   49.592">  1  4  2 -1</clus>
<clus scale="   72.752">  1  3  2 -1</clus>
<clus scale="  101.826">  2  5  1 -1</clus>
<clus scale="   49.592">  1  3  2 -1</clus>
</clustering>
</event>
<event>
 6    0  0.1555973E+002  0.1527997E+03  0.7546771E-02  0.1197074E+00
         21   -1    0    0  506  501  0.00000000000E+00  0.00000000000E+00  0.63716022408E+03  0.63716022408E+03  0.00000000000E+00 0. -1.
         21   -1    0    0  505  502 -0.00000000000E+00 -0.00000000000E+00 -0.52510844668E+03  0.52510844668E+03  0.00000000000E+00 0. -1.
         21    1    1    2  503  502  0.14956188909E+03  0.12122049825E+02 -0.47568960529E+03  0.49879485096E+03  0.00000000000E+00 0. -1.
         21    1    1    2  504  501 -0.38751800685E+02 -0.15455275977E+02  0.27306679722E+03  0.27623548533E+03  0.00000000000E+00 0. -1.
         21    1    1    2  505  504 -0.27668631684E+02 -0.50160581499E+02  0.27468166409E+03  0.28059161375E+03  0.00000000000E+00 0. -1.
         21    1    1    2  506  503 -0.83141456718E+02  0.53493807651E+02  0.39992921381E+02  0.10664672073E+03  0.00000000000E+00 0. -1.
<scales pt_clust_3="148.44804" pt_clust_4="30.89864" pt_clust_5="30.89864" pt_clust_6="98.86399"></scales>
<clustering>
<clus scale="   30.899">  4  5 -1 -1</clus>
<clus scale="   98.864">  1  6  2 -1</clus>
<clus scale="  148.448">  2  3  1 -1</clus>
<clus scale="   98.864">  1  3  2 -1</clus>
</clustering>
</event>
<event>
 6    0  0.1555973E+002  0.1121595E+03  0.7546771E-02  0.1256622E+00
         21   -1    0    0  505  501  0.00000000000E+00  0.00000000000E+00  0.28666116904E+04  0.28666116904E+04  0.00000000000E+00 0. -1.
         21   -1    0    0  503  502 -0.00000000000E+00 -0.00000000000E+00 -0.16067708705E+03  0.16067708705E+03  0.00000000000E+00 0.  1.
         21    1    1    2  503  504  0.11296020953E+03  0.11755203101E+02 -0.13473687099E+03  0.17621639578E+03  0.00000000000E+00 0.  1.
         21    1    1    2  504  501 -0.53919784274E+02  0.70826563168E+02  0.95821060585E+03  0.96233638108E+03  0.00000000000E+00 0.  1.
         21    1    1    2  505  506 -0.55631998339E+02 -0.10817596821E+01  0.12205741008E+04  0.12218417348E+04  0.00000000000E+00 0.  1.
         21    1    1    2  506  502 -0.34084269189E+01 -0.81500006586E+02  0.66188676771E+03  0.66689426577E+03  0.00000000000E+00 0. -1.
<scales pt_clust_3="14000.00000" pt_clust_4="112.15954" pt_clust_5="55.64251" pt_clust_6="85.92434"></scales>
<clustering>
<clus scale="   55.643">  1  5  2 -1</clus>
<clus scale="   85.924">  1  6  2 -1</clus>
<clus scale="  112.160">  1  4  2 -1</clus>
<clus scale="   55.643">  1  3  2 -1</clus>
</clustering>
</event>
<event>
 6    0  0.1555973E+002  0.1229675E+03  0.7546771E-02  0.1238280E+00
         21   -1    0    0  503  501  0.00000000000E+00  0.00000000000E+00  0.57781356531E+02  0.57781356531E+02  0.00000000000E+00 0. -1.
         21   -1    0    0  504  502 -0.00000000000E+00 -0.00000000000E+00 -0.13260771888E+04  0.13260771888E+04  0.00000000000E+00 0. -1.
         21    1    1    2  503  502  0.39852164056E+01  0.94977414217E+02 -0.30328392489E+02  0.99781774649E+02  0.00000000000E+00 0. -1.
         21    1    1    2  504  506  0.10163181301E+02  0.82013345894E+02 -0.83811301221E+03  0.84217747559E+03  0.00000000000E+00 0. -1.
         21    1    1    2  505  501  0.12693803054E+02 -0.11833999764E+03 -0.20993886787E+03  0.24132926867E+03  0.00000000000E+00 0. -1.
         21    1    1    2  506  505 -0.26842200760E+02 -0.58650762471E+02 -0.18991555974E+03  0.20057002645E+03  0.00000000000E+00 0. -1.
<scales pt_clust_3="106.09188" pt_clust_4="82.64066" pt_clust_5="45.76992" pt_clust_6="45.76992"></scales>
<clustering>
<clus scale="   45.770">  5  6 -1 -1</clus>
<clus scale="   82.641">  2  4  1 -1</clus>
<clus scale="  106.092">  1  3  2 -1</clus>
<clus scale="  106.092">  1  3  2 -1</clus>
</clustering>
</event>
<event>
 6    0  0.1555973E+002  0.3050072E+03  0.7546771E-02  0.1082764E+00
         21   -1    0    0  504  501  0.00000000000E+00  0.00000000000E+00  0.24906898518E+03  0.24906898518E+03  0.00000000000E+00 0.  1.
         21   -1    0    0  505  502 -0.00000000000E+00 -0.00000000000E+00 -0.77909566074E+03  0.77909566074E+03  0.00000000000E+00 0.  1.
         21    1    1    2  503  506  0.34166501788E+02  0.66300940796E+02 -0.17166867081E+02  0.76536696559E+02  0.00000000000E+00 0.  1.
         21    1    1    2  504  502  0.15677081061E+03  0.75701573619E+01 -0.18860554648E+03  0.24537001957E+03  0.00000000000E+00 0.  1.
         21    1    1    2  505  503 -0.35796067927E+03 -0.17705871687E+03 -0.31686201492E+03  0.50979130399E+03  0.00000000000E+00 0.  1.
         21    1    1    2  506  501  0.16702336687E+03  0.10318761871E+03 -0.73922470839E+01  0.19646662580E+03  0.00000000000E+00 0.  1.
<scales pt_clust_3="42.36347" pt_clust_4="156.95348" pt_clust_5="297.16232" pt_clust_6="42.36347"></scales>
<clustering>
<clus scale="   42.363">  3  6 -1 -1</clus>
<clus scale="  156.953">  2  4  1 -1</clus>
<clus scale="  297.162">  2  5  1 -1</clus>
<clus scale="  305.007">  1  3  2 -1</clus>
</clustering>
</event>
<event>
 6    0  0.1555973E+002  0.1363195E+03  0.7546771E-02  0.1218369E+00
         21   -1    0    0  506  501  0.00000000000E+00  0.00000000000E+00  0.14634242224E+03  0.14634242224E+03  0.00000000000E+00 0. -1.
         21   -1    0    0  504  502 -0.00000000000E+00 -0.00000000000E+00 -0.29734516676E+03  0.29734516676E+03  0.00000000000E+00 0. -1.
         21    1    1    2  503  502 -0.13553844544E+03 -0.68282906468E+02 -0.95773399962E+02  0.17945966023E+03  0.00000000000E+00 0. -1.
         21    1    1    2  504  505  0.12900225189E+03  0.10704124422E+02 -0.10693168368E+03  0.16790039979E+03  0.00000000000E+00 0. -1.
         21    1    1    2  505  501 -0.14699703963E+02  0.32940731438E+02  0.52609303025E+02  0.63788022771E+02  0.00000000000E+00 0. -1.
         21    1    1    2  506  503  0.21235897514E+02  0.24638050607E+02 -0.90696390881E+00  0.32539506211E+02  0.00000000000E+00 0. -1.
<scales pt_clust_3="136.31945" pt_clust_4="14000.00000" pt_clust_5="44.23667" pt_clust_6="32.52686"></scales>
<clustering>
<clus scale="   32.527">  1  6  2 -1</clus>
<clus scale="   44.237">  1  5  2 -1</clus>
<clus scale="  136.319">  1  3  2 -1</clus>
<clus scale="   32.527">  1  3  2 -1</clus>
</clustering>
</event>
<event>
 6    0  0.1555973E+002  0.1251313E+03  0.7546771E-02  0.1234864E+00
         21   -1    0    0  504  501  0.00000000000E+00  0.00000000000E+00  0.19354446541E+03  0.19354446541E+03  0.00000000000E+00 0. -1.
         21   -1    0    0  506  502 -0.00000000000E+00 -0.00000000000E+00 -0.32785494687E+03  0.32785494687E+03  0.00000000000E+00 0. -1.
         21    1    1    2  503  501  0.59127585518E+01 -0.12341156412E+03 -0.94576408931E+02  0.15559586112E+03  0.00000000000E+00 0. -1.
         21    1    1    2  504  505 -0.26284605792E+02  0.64706843554E+02  0.15564158843E+02  0.71554868072E+02  0.00000000000E+00 0.  1.
         21    1    1    2  505  502  0.41044645058E+02  0.82057690106E+02  0.10007931001E+03  0.13577185159E+03  0.00000000000E+00 0. -1.
         21    1    1    2  506  503 -0.20672797817E+02 -0.23352969541E+02 -0.15537754137E+03  0.15847683149E+03  0.00000000000E+00 0.  1.
<scales pt_clust_3="125.13134" pt_clust_4="67.72706" pt_clust_5="14000.00000" pt_clust_6="31.18855"></scales>
<clustering>
<clus scale="   31.189">  2  6  1 -1</clus>
<clus scale="   67.727">  1  4  2 -1</clus>
<clus scale="  125.131">  2  3  1 -1</clus>
<clus scale="   67.727">  1  3  2 -1</clus>
</clustering>
</event>
<event>
 6    0  0.1555973E+002  0.1468961E+03  0.7546771E-02  0.1204340E+00
         21   -1    0    0  503  501  0.00000000000E+00  0.00000000000E+00  0.13552372816E+03  0.13552372816E+03  0.00000000000E+00 0. -1.
         21   -1    0    0  504  502 -0.00000000000E+00 -0.00000000000E+00 -0.67361896384E+03  0.67361896384E+03  0.00000000000E+00 0. -1.
         21    1    1    2  503  502  0.25951703126E+02  0.12542366812E+03 -0.37568474605E+02  0.13347650618E+03  0.00000000000E+00 0. -1.
         21    1    1    2  504  505  0.43250868775E+02  0.13791256397E+02 -0.43228171960E+03  0.43465885646E+03  0.00000000000E+00 0. -1.
         21    1    1    2  505  506 -0.50203509227E+02  0.29935121959E+02 -0.33206115507E+02  0.67224623260E+02  0.00000000000E+00 0.  1.
         21    1    1    2  506  501 -0.18999062674E+02 -0.16915004647E+03 -0.35038925973E+02  0.17378270610E+03  0.00000000000E+00 0. -1.
<scales pt_clust_3="14000.00000" pt_clust_4="45.39644" pt_clust_5="52.64219" pt_clust_6="146.89614"></scales>
<clustering>
<clus scale="   45.396">  2  4  1 -1</clus>
<clus scale="   52.642">  2  5  1 -1</clus>
<clus scale="  146.896">  2  6  1 -1</clus>
<clus scale="  146.896">  1  3  2 -1</clus>
</clustering>
</event>
<event>
 6    0  0.1555973E+002  0.5651857E+03  0.7546771E-02  0.9980389E-01
         21   -1    0    0  503  501  0.00000000000E+00  0.00000000000E+00  0.90908192870E+03  0.90908192870E+03  0.00000000000E+00 0. -1.
         21   -1    0    0  504  502 -0.00000000000E+00 -0.00000000000E+00 -0.89598727206E+03  0.89598727206E+03  0.00000000000E+00 0.  1.
         21    1    1    2  503  506  0.27565955713E+03  0.38686106439E+03 -0.23071226344E+03  0.52808884014E+03  0.00000000000E+00 0.  1.
         21    1    1    2  504  505 -0.47543683378E+02 -0.11186866232E+03  0.31247782050E+02  0.12550467450E+03  0.00000000000E+00 0. -1.
         21    1    1    2  505  501 -0.17282037564E+03 -0.38078323633E+03  0.60827509082E+03  0.73814723559E+03  0.00000000000E+00 0. -1.
         21    1    1    2  506  502 -0.55295498106E+02  0.10579083425E+03 -0.39571595279E+03  0.41332845053E+03  0.00000000000E+00 0. -1.
<scales pt_clust_3="523.25517" pt_clust_4="115.17949" pt_clust_5="115.17949" pt_clust_6="119.37040"></scales>
<clustering>
<clus scale="  115.179">  4  5 -1 -1</clus>
<clus scale="  119.370">  2  6  1 -1</clus>
<clus scale="  523.255">  2  3  1 -1</clus>
<clus scale="  565.186">  1  3  2 -1</clus>
</clustering>
</event>
<event>
 6    0  0.1555973E+002  0.9092941E+02  0.7546771E-02  0.1300616E+00
         21   -1    0    0  506  501  0.00000000000E+00  0.00000000000E+00  0.41368750285E+02  0.41368750285E+02  0.00000000000E+00 0.  1.
         21   -1    0    0  505  502 -0.00000000000E+00 -0.00000000000E+00 -0.15073164553E+04  0.15073164553E+04  0.00000000000E+00 0. -1.
         21    1    1    2  503  504 -0.34045484786E+02  0.55839682398E+02 -0.96157268244E+02  0.11629009158E+03  0.00000000000E+00 0.  1.
         21    1    1    2  504  502 -0.14890159402E+02 -0.96867138919E+02 -0.13272940967E+04  0.13309074268E+04  0.00000000000E+00 0. -1.
         21    1    1    2  505  501  0.50138358834E+02  0.32211146252E+01 -0.38804585509E+02  0.63482489416E+02  0.00000000000E+00 0. -1.
         21    1    1    2  506  503 -0.12027146452E+01  0.37806341895E+02 -0.36917545541E+01  0.38005197825E+02  0.00000000000E+00 0.  1.
<scales pt_clust_3="14000.00000" pt_clust_4="90.92941" pt_clust_5="54.39190" pt_clust_6="37.82547"></scales>
<clustering>
<clus scale="   37.825">  1  6  2 -1</clus>
<clus scale="   54.392">  1  5  2 -1</clus>
<clus scale="   90.929">  2  4  1 -1</clus>
<clus scale="   37.825">  1  3  2 -1</clus>
</clustering>
</event>
<event>
 6    0  0.1555973E+002  0.8812023E+02  0.7546771E-02  0.1307469E+00
         21   -1    0    0  503  501  0.00000000000E+00  0.00000000000E+00  0.45468381205E+02  0.45468381205E+02  0.00000000000E+00 0.  1.
         21   -1    0    0  505  502 -0.00000000000E+00 -0.00000000000E+00 -0.12697130793E+04  0.12697130793E+04  0.00000000000E+00 0.  1.
         21    1    1    2  503  506 -0.75027266741E+02  0.59634012903E+02 -0.92486550630E+02  0.13318809368E+03  0.00000000000E+00 0.  1.
         21    1    1    2  504  501  0.46621924919E+02 -0.70238102548E+02 -0.61999358464E+02  0.10464662146E+03  0.00000000000E+00 0.  1.
         21    1    1    2  505  504  0.12999132608E+02 -0.36831121427E+02 -0.11828404458E+03  0.12456574230E+03  0.00000000000E+00 0. -1.
         21    1    1    2  506  502  0.15406209213E+02  0.47435211071E+02 -0.95147474447E+03  0.95278100311E+03  0.00000000000E+00 0.  1.
<scales pt_clust_3="14000.00000" pt_clust_4="88.12023" pt_clust_5="39.05776" pt_clust_6="31.16265"></scales>
<clustering>
<clus scale="   39.058">  2  5  1 -1</clus>
<clus scale="   31.163">  2  6  1 -1</clus>
<clus scale="   88.120">  1  4  2 -1</clus>
<clus scale="   88.120">  1  3  2 -1</clus>
</clustering>
</event>
<event>
 6    0  0.1555973E+002  0.1295509E+03  0.7546771E-02  0.1228124E+00
         21   -1    0    0  503  501  0.00000000000E+00  0.00000000000E+00  0.10077484946E+03  0.10077484946E+03  0.00000000000E+00 0. -1.
         21   -1    0    0  505  502 -0.00000000000E+00 -0.00000000000E+00 -0.73316019482E+03  0.73316019482E+03  0.00000000000E+00 0.  1.
         21    1    1    2  503  506  0.42681634013E+02  0.72651875843E+02  0.65277657127E+01  0.84514073802E+02  0.00000000000E+00 0. -1.
         21    1    1    2  504  502  0.60429262062E+02 -0.41087369777E+02 -0.52508563291E+03  0.53014600777E+03  0.00000000000E+00 0.  1.
         21    1    1    2  505  501 -0.96281014452E+02 -0.81040247490E+02 -0.11328775815E+03  0.16932711420E+03  0.00000000000E+00 0.  1.
         21    1    1    2  506  504 -0.68298816229E+01  0.49475741424E+02 -0.53972001838E+00  0.49947848504E+02  0.00000000000E+00 0.  1.
<scales pt_clust_3="33.05750" pt_clust_4="73.07440" pt_clust_5="122.22845" pt_clust_6="33.05750"></scales>
<clustering>
<clus scale="   33.057">  3  6 -1 -1</clus>
<clus scale="   73.074">  2  4  1 -1</clus>
<clus scale="  122.228">  2  5  1 -1</clus>
<clus scale="  129.551">  1  3  2 -1</clus>
</clustering>
</event>
<event>
 6    0  0.1555973E+002  0.9773309E+02  0.7546771E-02  0.1285136E+00
         21   -1    0    0  504  501  0.00000000000E+00  0.00000000000E+00  0.21890092995E+04  0.21890092995E+04  0.00000000000E+00 0. -1.
         21   -1    0    0  506  502 -0.00000000000E+00 -0.00000000000E+00 -0.26352551199E+03  0.26352551199E+03  0.00000000000E+00 0.  1.
         21    1    1    2  503  502  0.71021043532E+02  0.67630941100E+02 -0.24886342724E+03  0.26749007129E+03  0.00000000000E+00 0.  1.
         21    1    1    2  504  503 -0.92267090502E+02  0.21698833822E+02  0.12559557261E+04  0.12595272293E+04  0.00000000000E+00 0. -1.
         21    1    1    2  505  501 -0.20966544205E+02 -0.52106774882E+02  0.54860625789E+03  0.55147396871E+03  0.00000000000E+00 0. -1.
         21    1    1    2  506  505  0.42212591175E+02 -0.37223000040E+02  0.36978523067E+03  0.37404354213E+03  0.00000000000E+00 0. -1.
<scales pt_clust_3="97.73309" pt_clust_4="14000.00000" pt_clust_5="56.16682" pt_clust_6="61.71289"></scales>
<clustering>
<clus scale="   56.167">  1  5  2 -1</clus>
<clus scale="   61.713">  1  6  2 -1</clus>
<clus scale="   97.733">  2  3  1 -1</clus>
<clus scale="   56.167">  1  3  2 -1</clus>
</clustering>
</event>
<event>
 6    0  0.1555973E+002  0.9357216E+02  0.7546771E-02  0.1294425E+00
         21   -1    0    0  505  501  0.00000000000E+00  0.00000000000E+00  0.72639359160E+03  0.72639359160E+03  0.00000000000E+00 0. -1.
         21   -1    0    0  504  502 -0.00000000000E+00 -0.00000000000E+00 -0.19300684160E+03  0.19300684160E+03  0.00000000000E+00 0. -1.
         21    1    1    2  503  506 -0.17684221851E+02  0.48924147743E+02  0.57451721481E+02  0.77504865886E+02  0.00000000000E+00 0. -1.
         21    1    1    2  504  503 -0.93165487880E+02 -0.11526094960E+02 -0.16215367509E+03  0.18736721523E+03  0.00000000000E+00 0. -1.
         21    1    1    2  505  502  0.88372386818E+02 -0.63304103823E+02  0.53340128505E+03  0.54436570356E+03  0.00000000000E+00 0. -1.
         21    1    1    2  506  501  0.22477322913E+02  0.25906051041E+02  0.10468741856E+03  0.11016264853E+03  0.00000000000E+00 0. -1.
<scales pt_clust_3="53.94406" pt_clust_4="14000.00000" pt_clust_5="93.57216" pt_clust_6="34.29801"></scales>
<clustering>
<clus scale="   34.298">  1  6  2 -1</clus>
<clus scale="   53.944">  1  3  2 -1</clus>
<clus scale="   93.572">  1  5  2 -1</clus>
<clus scale="   34.298">  1  3  2 -1</clus>
</clustering>
</event>
<event>
 6    0  0.1555973E+002  0.1376885E+03  0.7546771E-02  0.1216474E+00
         21   -1    0    0  506  501  0.00000000000E+00  0.00000000000E+00  0.12366268452E+03  0.12366268452E+03  0.00000000000E+00 0.  1.
         21   -1    0    0  504  502 -0.00000000000E+00 -0.00000000000E+00 -0.95957525977E+03  0.95957525977E+03  0.00000000000E+00 0.  1.
         21    1    1    2  503  505 -0.81747040383E+02  0.11129163272E+02  0.36967695476E+02  0.90404908027E+02  0.00000000000E+00 0.  1.
         21    1    1    2  504  503  0.10109961692E+03 -0.30096160499E+02 -0.23822500602E+03  0.26053419144E+03  0.00000000000E+00 0. -1.
         21    1    1    2  505  501 -0.27898069066E+02  0.51044607495E+02  0.30932476708E+02  0.65883778939E+02  0.00000000000E+00 0.  1.
         21    1    1    2  506  502  0.85454925299E+01 -0.32077610269E+02 -0.66558774141E+03  0.66641506589E+03  0.00000000000E+00 0.  1.
<scales pt_clust_3="52.10679" pt_clust_4="122.59704" pt_clust_5="52.10679" pt_clust_6="33.19636"></scales>
<clustering>
<clus scale="   33.196">  2  6  1 -1</clus>
<clus scale="   52.107">  3  5 -1 -1</clus>
<clus scale="  122.597">  2  4  1 -1</clus>
<clus scale="  137.689">  1  3  2 -1</clus>
</clustering>
</event>
<event>
 6    0  0.1555973E+002  0.1718640E+03  0.7546771E-02  0.1175918E+00
         21   -1    0    0  504  501  0.00000000000E+00  0.00000000000E+00  0.15166116042E+03  0.15166116042E+03  0.00000000000E+00 0.  1.
         21   -1    0    0  506  502 -0.00000000000E+00 -0.00000000000E+00 -0.99016928506E+03  0.99016928506E+03  0.00000000000E+00 0.  1.
         21    1    1    2  503  505  0.58328434332E+02 -0.22070248721E+02 -0.20245861809E+02  0.65568262526E+02  0.00000000000E+00 0.  1.
         21    1    1    2  504  502 -0.82921067689E+01  0.64208063145E+02  0.46497442038E+02  0.79708509732E+02  0.00000000000E+00 0.  1.
         21    1    1    2  505  501  0.88403188146E+02  0.35892081304E+02  0.20126286976E+02  0.97511192190E+02  0.00000000000E+00 0.  1.
         21    1    1    2  506  503 -0.13843951571E+03 -0.78029895728E+02 -0.88488599185E+03  0.89904248103E+03  0.00000000000E+00 0.  1.
<scales pt_clust_3="56.44117" pt_clust_4="64.74129" pt_clust_5="56.44117" pt_clust_6="157.04633"></scales>
<clustering>
<clus scale="   56.441">  3  5 -1 -1</clus>
<clus scale="   64.741">  1  4  2 -1</clus>
<clus scale="  157.046">  2  6  1 -1</clus>
<clus scale="   64.741">  1  3  2 -1</clus>
</clustering>
</event>
<event>
 6    0  0.1555973E+002  0.1175580E+03  0.7546771E-02  0.1247181E+00
         21   -1    0    0  503  501  0.00000000000E+00  0.00000000000E+00  0.10996666952E+03  0.10996666952E+03  0.00000000000E+00 0.  1.
         21   -1    0    0  506  502 -0.00000000000E+00 -0.00000000000E+00 -0.27152815168E+03  0.27152815168E+03  0.00000000000E+00 0.  1.
         21    1    1    2  503  502 -0.44324815959E+02  0.69788032714E+02 -0.12954335898E+02  0.83683174166E+02  0.00000000000E+00 0. -1.
         21    1    1    2  504  501  0.19166604942E+02 -0.10939314828E+03 -0.31384874694E+02  0.11540896844E+03  0.00000000000E+00 0.  1.
         21    1    1    2  505  504  0.28224592621E+02 -0.24968753539E+02  0.10614082438E+02  0.39150032285E+02  0.00000000000E+00 0. -1.
         21    1    1    2  506  505 -0.30663816046E+01  0.64573869108E+02 -0.12783635401E+03  0.14325264631E+03  0.00000000000E+00 0.  1.
<scales pt_clust_3="103.25628" pt_clust_4="32.73453" pt_clust_5="32.73453" pt_clust_6="64.64663"></scales>
<clustering>
<clus scale="   32.735">  4  5 -1 -1</clus>
<clus scale="   64.647">  2  6  1 -1</clus>
<clus scale="  103.256">  1  3  2 -1</clus>
<clus scale="  103.256">  1  3  2 -1</clus>
</clustering>
</event>
<event>
 6    0  0.1555973E+002  0.4446379E+03  0.7546771E-02  0.1029333E+00
         21   -1    0    0  504  501  0.00000000000E+00  0.00000000000E+00  0.10194717752E+03  0.10194717752E+03  0.00000000000E+00 0.  1.
         21   -1    0    0  503  502 -0.00000000000E+00 -0.00000000000E+00 -0.23475834875E+04  0.23475834875E+04  0.00000000000E+00 0. -1.
         21    1    1    2  503  506  0.62273814273E+02  0.17046923350E+02 -0.19566403924E+03  0.20604135942E+03  0.00000000000E+00 0.  1.
         21    1    1    2  504  502 -0.39051810049E+03  0.82583422212E+02 -0.16971494695E+04  0.17434565467E+04  0.00000000000E+00 0. -1.
         21    1    1    2  505  501  0.21999155097E+03 -0.92523277968E+02 -0.19330985045E+03  0.30712462901E+03  0.00000000000E+00 0.  1.
         21    1    1    2  506  505  0.10825273524E+03 -0.71070675945E+01 -0.15951295075E+03  0.19290812983E+03  0.00000000000E+00 0.  1.
<scales pt_clust_3="47.75498" pt_clust_4="399.15462" pt_clust_5="140.43378" pt_clust_6="140.43378"></scales>
<clustering>
<clus scale="   47.755">  3  6 -1 -1</clus>
<clus scale="  140.434">  3  5 -1 -1</clus>
<clus scale="  399.155">  2  4  1 -1</clus>
<clus scale="  444.638">  1  3  2 -1</clus>
</clustering>
</event>
<event>
 6    0  0.1555973E+002  0.8470640E+02  0.7546771E-02  0.1316202E+00
         21   -1    0    0  506  501  0.00000000000E+00  0.00000000000E+00  0.60380176836E+02  0.60380176836E+02  0.00000000000E+00 0. -1.
         21   -1    0    0  504  502 -0.00000000000E+00 -0.00000000000E+00 -0.11715522756E+04  0.11715522756E+04  0.00000000000E+00 0. -1.
         21    1    1    2  503  501  0.12190913772E+02  0.41819998632E+02 -0.24758843410E+02  0.50105199243E+02  0.00000000000E+00 0.  1.
         21    1    1    2  504  503  0.78427178544E+02 -0.69228022632E+02 -0.23828159219E+02  0.10728989991E+03  0.00000000000E+00 0. -1.
         21    1    1    2  505  502 -0.24688422781E+02  0.28399947354E+02 -0.87304519096E+03  0.87385581230E+03  0.00000000000E+00 0. -1.
         21    1    1    2  506  505 -0.65929669535E+02 -0.99192335404E+00 -0.18953990518E+03  0.20068154099E+03  0.00000000000E+00 0.  1.
<scales pt_clust_3="46.28762" pt_clust_4="14000.00000" pt_clust_5="37.63078" pt_clust_6="84.70640"></scales>
<clustering>
<clus scale="   37.631">  2  5  1 -1</clus>
<clus scale="   46.288">  1  3  2 -1</clus>
<clus scale="   84.706">  2  6  1 -1</clus>
<clus scale="   46.288">  1  3  2 -1</clus>
</clustering>
</event>
<event>
 6    0  0.1555973E+002  0.1560789E+03  0.7546771E-02  0.1193196E+00
         21   -1    0    0  506  501  0.00000000000E+00  0.00000000000E+00  0.32106036490E+03  0.32106036490E+03  0.00000000000E+00 0. -1.
         21   -1    0    0  505  502 -0.00000000000E+00 -0.00000000000E+00 -0.23830390074E+03  0.23830390074E+03  0.00000000000E+00 0. -1.
         21    1    1    2  503  504  0.86269930845E+02  0.70957500854E+02  0.14233677365E+03  0.18093431136E+03  0.00000000000E+00 0. -1.
         21    1    1    2  504  501  0.29492683689E+02  0.24668155264E+02  0.11827212215E+03  0.12436491126E+03  0.00000000000E+00 0. -1.
         21    1    1    2  505  503 -0.49593842652E+00 -0.45665038848E+02 -0.14344131305E+02  0.47867481977E+02  0.00000000000E+00 0.  1.
         21    1    1    2  506  502 -0.11526667611E+03 -0.49960617270E+02 -0.16350830033E+03  0.20619756103E+03  0.00000000000E+00 0. -1.
<scales pt_clust_3="30.74058" pt_clust_4="30.74058" pt_clust_5="45.66773" pt_clust_6="147.02130"></scales>
<clustering>
<clus scale="   30.741">  3  4 -1 -1</clus>
<clus scale="   45.668">  2  5  1 -1</clus>
<clus scale="  147.021">  2  6  1 -1</clus>
<clus scale="  156.079">  1  3  2 -1</clus>
</clustering>
</event>
<event>
 6    0  0.1555973E+002  0.1512638E+03  0.7546771E-02  0.1198929E+00
         21   -1    0    0  504  501  0.00000000000E+00  0.00000000000E+00  0.35046714741E+03  0.35046714741E+03  0.00000000000E+00 0. -1.
         21   -1    0    0  506  502 -0.00000000000E+00 -0.00000000000E+00 -0.30376391730E+03  0.30376391730E+03  0.00000000000E+00 0. -1.
         21    1    1    2  503  501 -0.21879067744E+02  0.12970129721E+03  0.19746391243E+03  0.23726170533E+03  0.00000000000E+00 0. -1.
         21    1    1    2  504  505  0.42401466660E+02  0.18339389167E+02  0.38245107067E+02  0.59974209328E+02  0.00000000000E+00 0. -1.
         21    1    1    2  505  502  0.24480541313E+02  0.29412046042E+02 -0.16848764014E+03  0.17277861626E+03  0.00000000000E+00 0. -1.
         21    1    1    2  506  503 -0.45002940229E+02 -0.17745273242E+03 -0.20518149250E+02  0.18421653379E+03  0.00000000000E+00 0. -1.
<scales pt_clust_3="151.26378" pt_clust_4="49.00438" pt_clust_5="38.26703" pt_clust_6="14000.00000"></scales>
<clustering>
<clus scale="   38.267">  2  5  1 -1</clus>
<clus scale="   49.004">  1  4  2 -1</clus>
<clus scale="  151.264">  1  3  2 -1</clus>
<clus scale="   49.004">  1  3  2 -1</clus>
</clustering>
</event>
<event>
 6    0  0.1555973E+002  0.1541673E+03  0.7546771E-02  0.1195444E+00
         21   -1    0    0  504  501  0.00000000000E+00  0.00000000000E+00  0.24457903841E+03  0.24457903841E+03  0.00000000000E+00 0.  1.
         21   -1    0    0  503  502 -0.00000000000E+00 -0.00000000000E+00 -0.31391968004E+03  0.31391968004E+03  0.00000000000E+00 0.  1.
         21    1    1    2  503  505 -0.14396612711E+02  0.78874349594E+02 -0.54546729983E+02  0.96973043848E+02  0.00000000000E+00 0.  1.
         21    1    1    2  504  506 -0.10925672037E+03 -0.79426852060E+02  0.30762860899E+02  0.13853522796E+03  0.00000000000E+00 0.  1.
         21    1    1    2  505  501  0.14346699960E+03  0.12650317542E+03 -0.14879149909E+02  0.19185208487E+03  0.00000000000E+00 0.  1.
         21    1    1    2  506  502 -0.19813666518E+02 -0.12595067296E+03 -0.30677622632E+02  0.13113836178E+03  0.00000000000E+00 0.  1.
<scales pt_clust_3="80.17746" pt_clust_4="154.16730" pt_clust_5="14000.00000" pt_clust_6="102.18659"></scales>
<clustering>
<clus scale="   80.177">  2  3  1 -1</clus>
<clus scale="  102.187">  2  6  1 -1</clus>
<clus scale="  154.167">  1  4  2 -1</clus>
<clus scale="  154.167">  1  3  2 -1</clus>
</clustering>
</event>
<event>
 6    0  0.1555973E+002  0.8643115E+02  0.7546771E-02  0.1311732E+00
         21   -1    0    0  505  501  0.00000000000E+00  0.00000000000E+00  0.84850008614E+03  0.84850008614E+03  0.00000000000E+00 0. -1.
         21   -1    0    0  503  502 -0.00000000000E+00 -0.00000000000E+00 -0.17190748848E+03  0.17190748848E+03  0.00000000000E+00 0.  1.
         21    1    1    2  503  501 -0.20490567890E+02 -0.13653705986E+03  0.26048496096E+03  0.29481290164E+03  0.00000000000E+00 0. -1.
         21    1    1    2  504  506  0.24265838607E+02  0.55378116875E+02  0.34320598294E+03  0.34849090875E+03  0.00000000000E+00 0. -1.
         21    1    1    2  505  504 -0.21782475244E+02  0.28790661278E+02  0.21843086508E+03  0.22139426646E+03  0.00000000000E+00 0. -1.
         21    1    1    2  506  502  0.18007204527E+02  0.52368281703E+02 -0.14552921133E+03  0.15570949776E+03  0.00000000000E+00 0.  1.
<scales pt_clust_3="14000.00000" pt_clust_4="86.43115" pt_clust_5="36.10233" pt_clust_6="55.54140"></scales>
<clustering>
<clus scale="   36.102">  1  5  2 -1</clus>
<clus scale="   55.541">  2  6  1 -1</clus>
<clus scale="   86.431">  1  4  2 -1</clus>
<clus scale="   36.102">  1  3  2 -1</clus>
</clustering>
</event>
<event>
 6    0  0.1555973E+002  0.3792388E+03  0.7546771E-02  0.1051215E+00
         21   -1    0    0  504  501  0.00000000000E+00  0.00000000000E+00  0.18252827286E+04  0.18252827286E+04  0.00000000000E+00 0.  1.
         21   -1    0    0  505  502 -0.00000000000E+00 -0.00000000000E+00 -0.12564891883E+03  0.12564891883E+03  0.00000000000E+00 0. -1.
         21    1    1    2  503  502 -0.78242525660E+02  0.12221010498E+03  0.47560952138E+03  0.49725407932E+03  0.00000000000E+00 0. -1.
         21    1    1    2  504  506 -0.97273936506E+02  0.13049408055E+03  0.80498310666E+03  0.82127262574E+03  0.00000000000E+00 0.  1.
         21    1    1    2  505  501  0.23711266736E+03 -0.26938241150E+03  0.21438701250E+03  0.41803240518E+03  0.00000000000E+00 0. -1.
         21    1    1    2  506  503 -0.61596205196E+02  0.16678225973E+02  0.20465416925E+03  0.21437253720E+03  0.00000000000E+00 0.  1.
<scales pt_clust_3="65.97815" pt_clust_4="65.97815" pt_clust_5="358.87226" pt_clust_6="45.98668"></scales>
<clustering>
<clus scale="   45.987">  3  6 -1 -1</clus>
<clus scale="   65.978">  3  4 -1 -1</clus>
<clus scale="  358.872">  2  5  1 -1</clus>
<clus scale="  379.239">  1  3  2 -1</clus>
</clustering>
</event>
<event>
 6    0  0.1555973E+002  0.1498419E+03  0.7546771E-02  0.1200667E+00
         21   -1    0    0  503  501  0.00000000000E+00  0.00000000000E+00  0.59750474147E+03  0.59750474147E+03  0.00000000000E+00 0.  1.
         21   -1    0    0  505  502 -0.00000000000E+00 -0.00000000000E+00 -0.29052279941E+03  0.29052279941E+03  0.00000000000E+00 0.  1.
         21    1    1    2  503  504 -0.32728139282E+02 -0.47257139731E+02  0.13139853499E+03  0.14342225543E+03  0.00000000000E+00 0. -1.
         21    1    1    2  504  502  0.97979928262E+02 -0.16654595440E+03 -0.19790387005E+03  0.27659277476E+03  0.00000000000E+00 0.  1.
         21    1    1    2  505  506 -0.10963151091E+02  0.52557644323E+02 -0.41183890023E+01  0.53846613511E+02  0.00000000000E+00 0.  1.
         21    1    1    2  506  501 -0.54288637889E+02  0.16124544981E+03  0.37760566613E+03  0.41416589717E+03  0.00000000000E+00 0.  1.
<scales pt_clust_3="56.64100" pt_clust_4="149.84192" pt_clust_5="53.68889" pt_clust_6="14000.00000"></scales>
<clustering>
<clus scale="   53.689">  2  5  1 -1</clus>
<clus scale="   56.641">  1  3  2 -1</clus>
<clus scale="  149.842">  2  4  1 -1</clus>
<clus scale="   56.641">  1  3  2 -1</clus>
</clustering>
</event>
<event>
 6    0  0.1555973E+002  0.2012471E+03  0.7546771E-02  0.1148691E+00
         21   -1    0    0  504  501  0.00000000000E+00  0.00000000000E+00  0.80167285704E+03  0.80167285704E+03  0.00000000000E+00 0. -1.
         21   -1    0    0  506  502 -0.00000000000E+00 -0.00000000000E+00 -0.29265379045E+03  0.29265379045E+03  0.00000000000E+00 0. -1.
         21    1    1    2  503  505  0.11032386824E+03  0.10685877530E+02  0.22223790777E+03  0.24834498491E+03  0.00000000000E+00 0.  1.
         21    1    1    2  504  503  0.88266277777E+02 -0.59103940009E+01  0.44352457658E+03  0.45226089659E+03  0.00000000000E+00 0. -1.
         21    1    1    2  505  502 -0.17504609735E+03  0.38761386440E+02 -0.23836537095E+03  0.29826436486E+03  0.00000000000E+00 0. -1.
         21    1    1    2  506  501 -0.23544048665E+02 -0.43536869969E+02  0.81621953194E+02  0.95456401134E+02  0.00000000000E+00 0. -1.
<scales pt_clust_3="80.02395" pt_clust_4="80.02395" pt_clust_5="179.86751" pt_clust_6="49.49527"></scales>
<clustering>
<clus scale="   49.495">  1  6  2 -1</clus>
<clus scale="   80.024">  3  4 -1 -1</clus>
<clus scale="  179.868">  2  5  1 -1</clus>
<clus scale="   49.495">  1  3  2 -1</clus>
</clustering>
</event>
<event>
 6    0  0.1555973E+002  0.9441124E+02  0.7546771E-02  0.1292508E+00
         21   -1    0    0  504  501  0.00000000000E+00  0.00000000000E+00  0.31393937675E+02  0.31393937675E+02  0.00000000000E+00 0. -1.
         21   -1    0    0  505  502 -0.00000000000E+00 -0.00000000000E+00 -0.10990814997E+04  0.10990814997E+04  0.00000000000E+00 0.  1.
         21    1    1    2  503  501  0.59908350438E+02 -0.36004100648E+02 -0.27624821162E+03  0.28495329466E+03  0.00000000000E+00 0.  1.
         21    1    1    2  504  502 -0.88529364863E+02  0.57486460041E+02 -0.10552648745E+03  0.14925810224E+03  0.00000000000E+00 0. -1.
         21    1    1    2  505  506  0.27192957995E+02  0.35728645001E+02 -0.49302969219E+03  0.49506996518E+03  0.00000000000E+00 0.  1.
         21    1    1    2  506  503  0.14280564295E+01 -0.57211004394E+02 -0.19288317074E+03  0.20119407527E+03  0.00000000000E+00 0.  1.
<scales pt_clust_3="94.41124" pt_clust_4="14000.00000" pt_clust_5="44.89981" pt_clust_6="46.72123"></scales>
<clustering>
<clus scale="   44.900">  2  5  1 -1</clus>
<clus scale="   46.721">  2  6  1 -1</clus>
<clus scale="   94.411">  2  3  1 -1</clus>
<clus scale="   94.411">  1  3  2 -1</clus>
</clustering>
</event>
<event>
 6    0  0.1555973E+002  0.9102572E+02  0.7546771E-02  0.1300387E+00
         21   -1    0    0  505  501  0.00000000000E+00  0.00000000000E+00  0.39614401597E+03  0.39614401597E+03  0.00000000000E+00 0. -1.
         21   -1    0    0  506  502 -0.00000000000E+00 -0.00000000000E+00 -0.45845793613E+03  0.45845793613E+03  0.00000000000E+00 0.  1.
         21    1    1    2  503  502  0.10003665668E+03 -0.18508329315E+02  0.25735876909E+03  0.27673710803E+03  0.00000000000E+00 0. -1.
         21    1    1    2  504  503 -0.13073684892E+02 -0.43275271219E+02  0.71558216923E+02  0.84641885287E+02  0.00000000000E+00 0. -1.
         21    1    1    2  505  504 -0.36764954917E+02 -0.14583181477E+02  0.37714235707E+02  0.54650660261E+02  0.00000000000E+00 0.  1.
         21    1    1    2  506  501 -0.50198016868E+02  0.76366782011E+02 -0.42894514188E+03  0.43857229852E+03  0.00000000000E+00 0.  1.
<scales pt_clust_3="91.02572" pt_clust_4="86.38255" pt_clust_5="37.76885" pt_clust_6="14000.00000"></scales>
<clustering>
<clus scale="   37.769">  4  5 -1 -1</clus>
<clus scale="   86.383">  1  4  2 -1</clus>
<clus scale="   91.026">  1  3  2 -1</clus>
<clus scale="   86.383">  1  3  2 -1</clus>
</clustering>
</event>
<event>
 6    0  0.1555973E+002  0.1878429E+03  0.7546771E-02  0.1160421E+00
         21   -1    0    0  503  501  0.00000000000E+00  0.00000000000E+00  0.17195979075E+03  0.17195979075E+03  0.00000000000E+00 0.  1.
         21   -1    0    0  501  502 -0.00000000000E+00 -0.00000000000E+00 -0.34463559755E+03  0.34463559755E+03  0.00000000000E+00 0.  1.
         21    1    1    2  503  506 -0.29928568157E+02  0.75777561185E+01  0.69909562358E+01  0.31654621287E+02  0.00000000000E+00 0.  1.
         21    1    1    2  504  505 -0.90768281254E+01  0.12107113825E+03  0.80839562475E+01  0.12167974225E+03  0.00000000000E+00 0.  1.
         21    1    1    2  505  502  0.49897094820E+02 -0.16834135678E+03 -0.23960892673E+03  0.29705381708E+03  0.00000000000E+00 0.  1.
         21    1    1    2  506  504 -0.10891698537E+02  0.39692462412E+02  0.51858207443E+02  0.66207207678E+02  0.00000000000E+00 0.  1.
<scales pt_clust_3="30.87299" pt_clust_4="45.67893" pt_clust_5="172.68518" pt_clust_6="45.67893"></scales>
<clustering>
<clus scale="   30.873">  1  3  2 -1</clus>
<clus scale="   45.679">  4  6 -1 -1</clus>
<clus scale="  172.685">  2  5  1 -1</clus>
<clus scale="   30.873">  1  3  2 -1</clus>
</clustering>
</event>
<event>
 6    0  0.1555973E+002  0.2429218E+03  0.7546771E-02  0.1117862E+00
         21   -1    0    0  506  501  0.00000000000E+00  0.00000000000E+00  0.23821477711E+03  0.23821477711E+03  0.00000000000E+00 0. -1.
         21   -1    0    0  505  502 -0.00000000000E+00 -0.00000000000E+00 -0.11539190546E+04  0.11539190546E+04  0.00000000000E+00 0. -1.
         21    1    1    2  503  501  0.24022405501E+03 -0.61764471044E+02  0.29673983305E+02  0.24980590820E+03  0.00000000000E+00 0. -1.
         21    1    1    2  504  502  0.97779725039E+01  0.50537986297E+02 -0.99279584624E+02  0.11183082191E+03  0.00000000000E+00 0. -1.
         21    1    1    2  505  503 -0.17769289947E+02 -0.31810239974E+02 -0.78592015461E+03  0.78676434112E+03  0.00000000000E+00 0. -1.
         21    1    1    2  506  504 -0.23223273756E+03  0.43036724722E+02 -0.60178521561E+02  0.24373276047E+03  0.00000000000E+00 0. -1.
<scales pt_clust_3="242.92183" pt_clust_4="41.66633" pt_clust_5="36.43678" pt_clust_6="14000.00000"></scales>
<clustering>
<clus scale="   36.437">  2  5  1 -1</clus>
<clus scale="   41.666">  2  4  1 -1</clus>
<clus scale="  242.922">  1  3  2 -1</clus>
<clus scale="  242.922">  1  3  2 -1</clus>
</clustering>
</event>
<event>
 6    0  0.1555973E+002  0.1287492E+03  0.7546771E-02  0.1229324E+00
         21   -1    0    0  505  501  0.00000000000E+00  0.00000000000E+00  0.53643254312E+03  0.53643254312E+03  0.00000000000E+00 0.  1.
         21   -1    0    0  506  502 -0.00000000000E+00 -0.00000000000E+00 -0.11711538458E+03  0.11711538458E+03  0.00000000000E+00 0.  1.
         21    1    1    2  503  501 -0.12282415929E+03 -0.13367365186E+03  0.21484905426E+03  0.28127306203E+03  0.00000000000E+00 0.  1.
         21    1    1    2  504  502  0.43959730477E+02 -0.52529860239E+01  0.23430954148E+02  0.50090531821E+02  0.00000000000E+00 0.  1.
         21    1    1    2  505  504  0.89600184269E+02  0.61907107889E+02  0.21211537196E+03  0.23843995900E+03  0.00000000000E+00 0.  1.
         21    1    1    2  506  503 -0.10735755453E+02  0.77019529995E+02 -0.31078221837E+02  0.83744374846E+02  0.00000000000E+00 0.  1.
<scales pt_clust_3="14000.00000" pt_clust_4="44.27247" pt_clust_5="128.74922" pt_clust_6="75.34788"></scales>
<clustering>
<clus scale="   44.272">  2  4  1 -1</clus>
<clus scale="   75.348">  2  6  1 -1</clus>
<clus scale="  128.749">  1  5  2 -1</clus>
<clus scale="  128.749">  1  3  2 -1</clus>
</clustering>
</event>
<event>
 6    0  0.1555973E+002  0.8617532E+02  0.7546771E-02  0.1312387E+00
         21   -1    0    0  503  501  0.00000000000E+00  0.00000000000E+00  0.75526572574E+03  0.75526572574E+03  0.00000000000E+00 0. -1.
         21   -1    0    0  506  502 -0.00000000000E+00 -0.00000000000E+00 -0.32771359895E+03  0.32771359895E+03  0.00000000000E+00 0. -1.
         21    1    1    2  503  505  0.15081979625E+02 -0.36659810630E+02  0.89836139327E+02  0.98193379380E+02  0.00000000000E+00 0. -1.
         21    1    1    2  504  502  0.33220967204E+02  0.80053460839E+02 -0.29104863252E+03  0.30367992318E+03  0.00000000000E+00 0. -1.
         21    1    1    2  505  504  0.53675877743E+02 -0.44143934016E+02  0.33464974858E+02  0.77134242099E+02  0.00000000000E+00 0.  1.
         21    1    1    2  506  501 -0.10197882457E+03  0.75028380704E+00  0.59529964512E+03  0.60397178003E+03  0.00000000000E+00 0. -1.
<scales pt_clust_3="39.64099" pt_clust_4="86.17532" pt_clust_5="72.43516" pt_clust_6="14000.00000"></scales>
<clustering>
<clus scale="   39.641">  1  3  2 -1</clus>
<clus scale="   72.435">  1  5  2 -1</clus>
<clus scale="   86.175">  2  4  1 -1</clus>
<clus scale="   39.641">  1  3  2 -1</clus>
</clustering>
</event>
<event>
 6    0  0.1555973E+002  0.1322768E+03  0.7546771E-02  0.1224116E+00
         21   -1    0    0  505  501  0.00000000000E+00  0.00000000000E+00  0.12117452099E+04  0.12117452099E+04  0.00000000000E+00 0.  1.
         21   -1    0    0  506  502 -0.00000000000E+00 -0.00000000000E+00 -0.16915809866E+03  0.16915809866E+03  0.00000000000E+00 0. -1.
         21    1    1    2  503  504  0.54657976593E+02 -0.68152878518E+02  0.39814899745E+03  0.40762106597E+03  0.00000000000E+00 0.  1.
         21    1    1    2  504  502  0.27566948899E+02  0.16294824409E+02 -0.15341814780E+03  0.15672455471E+03  0.00000000000E+00 0. -1.
         21    1    1    2  505  503  0.24603926947E+01 -0.40522622672E+02  0.10733193701E+03  0.11475313148E+03  0.00000000000E+00 0.  1.
         21    1    1    2  506  501 -0.84685318187E+02  0.92380676780E+02  0.69052432453E+03  0.70180455636E+03  0.00000000000E+00 0.  1.
<scales pt_clust_3="30.98295" pt_clust_4="32.02277" pt_clust_5="30.98295" pt_clust_6="123.31339"></scales>
<clustering>
<clus scale="   32.023">  2  4  1 -1</clus>
<clus scale="   30.983">  3  5 -1 -1</clus>
<clus scale="  123.313">  1  6  2 -1</clus>
<clus scale="  123.313">  1  3  2 -1</clus>
</clustering>
</event>
<event>
 6    0  0.1555973E+002  0.3815115E+03  0.7546771E-02  0.1050377E+00
         21   -1    0    0  503  501  0.00000000000E+00  0.00000000000E+00  0.31202960005E+03  0.31202960005E+03  0.00000000000E+00 0.  1.
         21   -1    0    0  505  502 -0.00000000000E+00 -0.00000000000E+00 -0.52477941637E+03  0.52477941637E+03  0.00000000000E+00 0.  1.
         21    1    1    2  503  504 -0.26494312039E+03 -0.13568532763E+03 -0.48143999135E+02  0.30153475725E+03  0.00000000000E+00 0.  1.
         21    1    1    2  504  506 -0.60658940964E+02 -0.35362888672E+02  0.19590582037E+02  0.72896034999E+02  0.00000000000E+00 0.  1.
         21    1    1    2  505  501  0.35642749688E+03  0.15502035169E+03 -0.16161285029E+03  0.42094011849E+03  0.00000000000E+00 0.  1.
         21    1    1    2  506  502 -0.30825435534E+02  0.16027864618E+02 -0.22583548932E+02  0.41438105681E+02  0.00000000000E+00 0.  1.
<scales pt_clust_3="31.13234" pt_clust_4="31.13234" pt_clust_5="376.08786" pt_clust_6="34.74334"></scales>
<clustering>
<clus scale="   31.132">  3  4 -1 -1</clus>
<clus scale="   34.743">  2  6  1 -1</clus>
<clus scale="  376.088">  2  5  1 -1</clus>
<clus scale="  381.511">  1  3  2 -1</clus>
</clustering>
</event>
<event>
 6    0  0.1555973E+002  0.1022190E+03  0.7546771E-02  0.1275698E+00
         21   -1    0    0  504  501  0.00000000000E+00  0.00000000000E+00  0.13869914755E+04  0.13869914755E+04  0.00000000000E+00 0.  1.
         21   -1    0    0  506  502 -0.00000000000E+00 -0.00000000000E+00 -0.59449739433E+02  0.59449739433E+02  0.00000000000E+00 0.  1.
         21    1    1    2  503  505  0.64967285027E+02 -0.17565234951E+02  0.59975097604E+02  0.90145981249E+02  0.00000000000E+00 0.  1.
         21    1    1    2  504  503 -0.99498695982E+02  0.42333828760E+02  0.11611749777E+04  0.11661987277E+04  0.00000000000E+00 0.  1.
         21    1    1    2  505  502  0.20630923020E+02 -0.65057846520E+02  0.12591124755E+03  0.14321941432E+03  0.00000000000E+00 0.  1.
         21    1    1    2  506  501  0.13900487935E+02  0.40289252711E+02 -0.19519586859E+02  0.46877091633E+02  0.00000000000E+00 0.  1.
<scales pt_clust_3="102.21899" pt_clust_4="14000.00000" pt_clust_5="57.58881" pt_clust_6="42.61980"></scales>
<clustering>
<clus scale="   42.620">  2  6  1 -1</clus>
<clus scale="   57.589">  2  5  1 -1</clus>
<clus scale="  102.219">  2  3  1 -1</clus>
<clus scale="  102.219">  1  3  2 -1</clus>
</clustering>
</event>
<event>
 6    0  0.1555973E+002  0.1536266E+03  0.7546771E-02  0.1196086E+00
         21   -1    0    0  503  501  0.00000000000E+00  0.00000000000E+00  0.32707844729E+03  0.32707844729E+03  0.00000000000E+00 0. -1.
         21   -1    0    0  506  502 -0.00000000000E+00 -0.00000000000E+00 -0.37881839948E+03  0.37881839948E+03  0.00000000000E+00 0. -1.
         21    1    1    2  503  504 -0.90213100523E+02  0.58505194432E+02  0.78351414379E+02  0.13304211896E+03  0.00000000000E+00 0. -1.
         21    1    1    2  504  505 -0.81592583604E+02  0.83729088662E+01  0.87120619920E+02  0.11965557955E+03  0.00000000000E+00 0. -1.
         21    1    1    2  505  502  0.57586228075E+02 -0.13450593771E+03 -0.27258684047E+03  0.30937292471E+03  0.00000000000E+00 0. -1.
         21    1    1    2  506  501  0.11421945605E+03  0.67627834413E+02  0.55374853987E+02  0.14382622356E+03  0.00000000000E+00 0. -1.
<scales pt_clust_3="43.54088" pt_clust_4="43.54088" pt_clust_5="145.31304" pt_clust_6="132.73887"></scales>
<clustering>
<clus scale="   43.541">  3  4 -1 -1</clus>
<clus scale="  132.739">  1  6  2 -1</clus>
<clus scale="  145.313">  2  5  1 -1</clus>
<clus scale="  132.739">  1  3  2 -1</clus>
</clustering>
</event>
<event>
 6    0  0.1555973E+002  0.2072206E+03  0.7546771E-02  0.1143786E+00
         21   -1    0    0  505  501  0.00000000000E+00  0.00000000000E+00  0.67924388783E+03  0.67924388783E+03  0.00000000000E+00 0.  1.
         21   -1    0    0  504  502 -0.00000000000E+00 -0.00000000000E+00 -0.12452783740E+03  0.12452783740E+03  0.00000000000E+00 0.  1.
         21    1    1    2  503  501 -0.21368982670E+02  0.41262022243E+02  0.27267799580E+03  0.27660888868E+03  0.00000000000E+00 0.  1.
         21    1    1    2  504  506  0.13150181231E+01  0.66230487405E+02  0.50295999081E+02  0.83173879662E+02  0.00000000000E+00 0.  1.
         21    1    1    2  505  502  0.33955827976E+02 -0.20477925901E+03  0.17535737089E+02  0.20831477444E+03  0.00000000000E+00 0.  1.
         21    1    1    2  506  503 -0.13901863428E+02  0.97286749362E+02  0.21420631846E+03  0.23567418245E+03  0.00000000000E+00 0.  1.
<scales pt_clust_3="46.46706" pt_clust_4="53.44313" pt_clust_5="195.27950" pt_clust_6="53.44313"></scales>
<clustering>
<clus scale="   46.467">  1  3  2 -1</clus>
<clus scale="   53.443">  4  6 -1 -1</clus>
<clus scale="  195.279">  2  5  1 -1</clus>
<clus scale="   46.467">  1  3  2 -1</clus>
</clustering>
</event>
<event>
 6    0  0.1555973E+002  0.1188862E+03  0.7546771E-02  0.1244946E+00
         21   -1    0    0  504  501  0.00000000000E+00  0.00000000000E+00  0.72512072820E+03  0.72512072820E+03  0.00000000000E+00 0.  1.
         21   -1    0    0  505  502 -0.00000000000E+00 -0.00000000000E+00 -0.12552564367E+03  0.12552564367E+03  0.00000000000E+00 0.  1.
         21    1    1    2  503  501  0.37669095266E+02  0.15460771982E+02  0.30105711872E+03  0.30379826356E+03  0.00000000000E+00 0.  1.
         21    1    1    2  504  502  0.31135641219E+02  0.85338864672E+02  0.29263231070E+03  0.30640792947E+03  0.00000000000E+00 0.  1.
         21    1    1    2  505  506 -0.21131208071E+02 -0.12037651393E+03 -0.75817513767E+02  0.14382394952E+03  0.00000000000E+00 0.  1.
         21    1    1    2  506  503 -0.47673528414E+02  0.19576877281E+02  0.81723168876E+02  0.96616229313E+02  0.00000000000E+00 0.  1.
<scales pt_clust_3="40.71850" pt_clust_4="14000.00000" pt_clust_5="118.88623" pt_clust_6="45.82388"></scales>
<clustering>
<clus scale="   40.718">  1  3  2 -1</clus>
<clus scale="   45.824">  1  6  2 -1</clus>
<clus scale="  118.886">  2  5  1 -1</clus>
<clus scale="   40.718">  1  3  2 -1</clus>
</clustering>
</event>
<event>
 6    0  0.1555973E+002  0.1870764E+03  0.7546771E-02  0.1161125E+00
         21   -1    0    0  502  501  0.00000000000E+00  0.00000000000E+00  0.45132424907E+03  0.45132424907E+03  0.00000000000E+00 0.  1.
         21   -1    0    0  505  502 -0.00000000000E+00 -0.00000000000E+00 -0.84161397484E+03  0.84161397484E+03  0.00000000000E+00 0.  1.
         21    1    1    2  503  506 -0.30226453841E+02 -0.26733233870E+02  0.17340285632E+02  0.43920266515E+02  0.00000000000E+00 0. -1.
         21    1    1    2  504  503 -0.11848722710E+03  0.20539079859E+02  0.38267177638E+02  0.12619609214E+03  0.00000000000E+00 0.  1.
         21    1    1    2  505  504 -0.41394286184E+02  0.79768804740E+01 -0.75702940324E+03  0.75820223880E+03  0.00000000000E+00 0.  1.
         21    1    1    2  506  501  0.19010796713E+03 -0.17827264625E+01  0.31113221420E+03  0.36461962645E+03  0.00000000000E+00 0.  1.
<scales pt_clust_3="35.20373" pt_clust_4="35.20373" pt_clust_5="42.15587" pt_clust_6="176.93029"></scales>
<clustering>
<clus scale="   35.204">  3  4 -1 -1</clus>
<clus scale="   42.156">  2  5  1 -1</clus>
<clus scale="  176.930">  1  6  2 -1</clus>
<clus scale="  176.930">  1  3  2 -1</clus>
</clustering>
</event>
<event>
 6    0  0.1555973E+002  0.1314391E+03  0.7546771E-02  0.1225336E+00
         21   -1    0    0  502  501  0.00000000000E+00  0.00000000000E+00  0.82073483966E+02  0.82073483966E+02  0.00000000000E+00 0.  1.
         21   -1    0    0  503  502 -0.00000000000E+00 -0.00000000000E+00 -0.51491003416E+03  0.51491003416E+03  0.00000000000E+00 0.  1.
         21    1    1    2  503  505  0.13283542240E+03 -0.67936300070E+02 -0.34794411821E+03  0.37858380804E+03  0.00000000000E+00 0.  1.
         21    1    1    2  504  506 -0.50357289664E+02  0.30821827255E+01 -0.13325519361E+02  0.52181662861E+02  0.00000000000E+00 0. -1.
         21    1    1    2  505  504 -0.43430733167E+02 -0.26265599187E+02 -0.27564983133E+02  0.57757584604E+02  0.00000000000E+00 0. -1.
         21    1    1    2  506  501 -0.39047399568E+02  0.91119716531E+02 -0.44001929488E+02  0.10846046262E+03  0.00000000000E+00 0.  1.
<scales pt_clust_3="127.26070" pt_clust_4="32.77910" pt_clust_5="32.77910" pt_clust_6="99.13376"></scales>
<clustering>
<clus scale="   32.779">  4  5 -1 -1</clus>
<clus scale="   99.134">  1  6  2 -1</clus>
<clus scale="  127.261">  2  3  1 -1</clus>
<clus scale="   99.134">  1  3  2 -1</clus>
</clustering>
</event>
<event>
 6    0  0.1555973E+002  0.1683933E+03  0.7546771E-02  0.1179534E+00
         21   -1    0    0  506  501  0.00000000000E+00  0.00000000000E+00  0.14227501798E+03  0.14227501798E+03  0.00000000000E+00 0. -1.
         21   -1    0    0  503  502 -0.00000000000E+00 -0.00000000000E+00 -0.62507339510E+03  0.62507339510E+03  0.00000000000E+00 0.  1.
         21    1    1    2  503  505  0.36378324555E+02 -0.12542566806E+02 -0.41735274434E+03  0.41912290762E+03  0.00000000000E+00 0.  1.
         21    1    1    2  504  501 -0.12891975013E+03 -0.16588926145E+02 -0.38647291331E+02  0.13560644369E+03  0.00000000000E+00 0. -1.
         21    1    1    2  505  504 -0.35685987405E+02 -0.40411017722E+02 -0.38547229804E+02  0.66275402496E+02  0.00000000000E+00 0.  1.
         21    1    1    2  506  502  0.12822741298E+03  0.69542510673E+02  0.11748888358E+02  0.14634365927E+03  0.00000000000E+00 0. -1.
<scales pt_clust_3="38.47985" pt_clust_4="44.30694" pt_clust_5="44.30694" pt_clust_6="154.60614"></scales>
<clustering>
<clus scale="   38.480">  2  3  1 -1</clus>
<clus scale="   44.307">  4  5 -1 -1</clus>
<clus scale="  154.606">  1  6  2 -1</clus>
<clus scale="  154.606">  1  3  2 -1</clus>
</clustering>
</event>
<event>
 6    0  0.1555973E+002  0.1016294E+03  0.7546771E-02  0.1276906E+00
         21   -1    0    0  504  501  0.00000000000E+00  0.00000000000E+00  0.32602058636E+03  0.32602058636E+03  0.00000000000E+00 0. -1.
         21   -1    0    0  505  502 -0.00000000000E+00 -0.00000000000E+00 -0.12654995076E+03  0.12654995076E+03  0.00000000000E+00 0. -1.
         21    1    1    2  503  506 -0.14617472390E+02  0.14446284948E+03  0.18130630311E+03  0.23228250241E+03  0.00000000000E+00 0. -1.
         21    1    1    2  504  502  0.44339677913E+02 -0.27031838499E+02 -0.24571661142E+02  0.57449924816E+02  0.00000000000E+00 0. -1.
         21    1    1    2  505  503 -0.49825480374E+01 -0.44038463022E+02 -0.32424398331E+02  0.54914056647E+02  0.00000000000E+00 0. -1.
         21    1    1    2  506  501 -0.24739657486E+02 -0.73392547958E+02  0.75160391967E+02  0.10792405324E+03  0.00000000000E+00 0. -1.
<scales pt_clust_3="101.62936" pt_clust_4="64.32044" pt_clust_5="44.31943" pt_clust_6="14000.00000"></scales>
<clustering>
<clus scale="   44.319">  2  5  1 -1</clus>
<clus scale="   64.320">  2  4  1 -1</clus>
<clus scale="  101.629">  2  3  1 -1</clus>
<clus scale="  101.629">  1  3  2 -1</clus>
</clustering>
</event>
<event>
 6    0  0.1555973E+002  0.1528427E+03  0.7546771E-02  0.1197023E+00
         21   -1    0    0  503  501  0.00000000000E+00  0.00000000000E+00  0.10123177928E+04  0.10123177928E+04  0.00000000000E+00 0.  1.
         21   -1    0    0  506  502 -0.00000000000E+00 -0.00000000000E+00 -0.16959501944E+03  0.16959501944E+03  0.00000000000E+00 0.  1.
         21    1    1    2  503  504 -0.18328364657E+02  0.11205342375E+03  0.61692083556E+03  0.62728240536E+03  0.00000000000E+00 0.  1.
         21    1    1    2  504  505 -0.36212349673E+02  0.39735762433E+02  0.29873681361E+03  0.30353574565E+03  0.00000000000E+00 0.  1.
         21    1    1    2  505  502  0.29359294906E+02 -0.62305183126E+02 -0.12633397588E+03  0.14388946280E+03  0.00000000000E+00 0.  1.
         21    1    1    2  506  501  0.25181419425E+02 -0.89484003054E+02  0.53399100113E+02  0.10720519847E+03  0.00000000000E+00 0.  1.
<scales pt_clust_3="30.60991" pt_clust_4="30.60991" pt_clust_5="68.87600" pt_clust_6="146.22595"></scales>
<clustering>
<clus scale="   30.610">  3  4 -1 -1</clus>
<clus scale="   68.876">  2  5  1 -1</clus>
<clus scale="  146.226">  2  6  1 -1</clus>
<clus scale="  152.843">  1  3  2 -1</clus>
</clustering>
</event>
<event>
 6    0  0.1555973E+002  0.1277727E+03  0.7546771E-02  0.1230799E+00
         21   -1    0    0  503  501  0.00000000000E+00  0.00000000000E+00  0.19326129426E+03  0.19326129426E+03  0.00000000000E+00 0. -1.
         21   -1    0    0  506  502 -0.00000000000E+00 -0.00000000000E+00 -0.33245226094E+03  0.33245226094E+03  0.00000000000E+00 0.  1.
         21    1    1    2  503  505 -0.95389550355E+02  0.51108473143E+02 -0.54489262387E+02  0.12116237889E+03  0.00000000000E+00 0.  1.
         21    1    1    2  504  501  0.44171050653E+02  0.91518272651E+00  0.37636279671E+02  0.58037994647E+02  0.00000000000E+00 0.  1.
         21    1    1    2  505  502 -0.17221782369E+02  0.62527433228E+02 -0.18722071871E+03  0.19813598161E+03  0.00000000000E+00 0.  1.
         21    1    1    2  506  504  0.68440282071E+02 -0.11455108910E+03  0.64882734759E+02  0.14837720004E+03  0.00000000000E+00 0. -1.
<scales pt_clust_3="14000.00000" pt_clust_4="44.18053" pt_clust_5="64.46873" pt_clust_6="127.77266"></scales>
<clustering>
<clus scale="   44.181">  1  4  2 -1</clus>
<clus scale="   64.469">  2  5  1 -1</clus>
<clus scale="  127.773">  1  6  2 -1</clus>
<clus scale="   44.181">  1  3  2 -1</clus>
</clustering>
</event>
<event>
 6    0  0.1555973E+002  0.1343435E+03  0.7546771E-02  0.1221149E+00
         21   -1    0    0  506  501  0.00000000000E+00  0.00000000000E+00  0.10802277973E+04  0.10802277973E+04  0.00000000000E+00 0. -1.
         21   -1    0    0  503  502 -0.00000000000E+00 -0.00000000000E+00 -0.60493376582E+02  0.60493376582E+02  0.00000000000E+00 0. -1.
         21    1    1    2  503  505  0.44055211819E+02  0.15518661666E+02  0.15528072905E+03  0.16215361655E+03  0.00000000000E+00 0. -1.
         21    1    1    2  504  501  0.49327593337E+02 -0.60446459422E+02  0.67744141180E+03  0.68191924181E+03  0.00000000000E+00 0. -1.
         21    1    1    2  505  504  0.36963788247E+02 -0.23135308608E+02  0.13304799854E+03  0.14001190686E+03  0.00000000000E+00 0. -1.
         21    1    1    2  506  502 -0.13034659340E+03  0.68063106364E+02  0.53964281326E+02  0.15663640866E+03  0.00000000000E+00 0. -1.
<scales pt_clust_3="38.02148" pt_clust_4="78.01914" pt_clust_5="38.02148" pt_clust_6="128.45128"></scales>
<clustering>
<clus scale="   38.021">  3  5 -1 -1</clus>
<clus scale="   78.019">  1  4  2 -1</clus>
<clus scale="  128.451">  2  6  1 -1</clus>
<clus scale="   78.019">  1  3  2 -1</clus>
</clustering>
</event>
<event>
 6    0  0.1555973E+002  0.1690415E+03  0.7546771E-02  0.1178851E+00
         21   -1    0    0  505  501  0.00000000000E+00  0.00000000000E+00  0.76740756709E+03  0.76740756709E+03  0.00000000000E+00 0. -1.
         21   -1    0    0  504  502 -0.00000000000E+00 -0.00000000000E+00 -0.25124455130E+03  0.25124455130E+03  0.00000000000E+00 0.  1.
         21    1    1    2  503  502  0.70056506523E+02 -0.14721294510E+03 -0.20154954497E+03  0.25923306962E+03  0.00000000000E+00 0.  1.
         21    1    1    2  504  501 -0.61962076359E+02  0.37803025114E+02  0.71776360733E+02  0.10207944737E+03  0.00000000000E+00 0. -1.
         21    1    1    2  505  506  0.22655162097E+02  0.39767231549E+02  0.23807401729E+03  0.24243334503E+03  0.00000000000E+00 0. -1.
         21    1    1    2  506  503 -0.30749592261E+02  0.69642688432E+02  0.40786218273E+03  0.41490625638E+03  0.00000000000E+00 0. -1.
<scales pt_clust_3="160.46593" pt_clust_4="72.58352" pt_clust_5="41.21636" pt_clust_6="41.21636"></scales>
<clustering>
<clus scale="   41.216">  5  6 -1 -1</clus>
<clus scale="   72.584">  1  4  2 -1</clus>
<clus scale="  160.466">  2  3  1 -1</clus>
<clus scale="   72.584">  1  3  2 -1</clus>
</clustering>
</event>
<event>
 6    0  0.1555973E+002  0.7697410E+02  0.7546771E-02  0.1337865E+00
         21   -1    0    0  504  501  0.00000000000E+00  0.00000000000E+00  0.40119567632E+02  0.40119567632E+02  0.00000000000E+00 0. -1.
         21   -1    0    0  506  502 -0.00000000000E+00 -0.00000000000E+00 -0.45054164841E+03  0.45054164841E+03  0.00000000000E+00 0. -1.
         21    1    1    2  503  502 -0.37631924376E+02  0.15363178580E+02 -0.84788121024E+02  0.94027732372E+02  0.00000000000E+00 0.  1.
         21    1    1    2  504  505 -0.17694162129E+02  0.37290619218E+02 -0.31249879819E+02  0.51770924695E+02  0.00000000000E+00 0. -1.
         21    1    1    2  505  503  0.22595302092E+02  0.56399048897E+02 -0.14355761009E+03  0.15588517508E+03  0.00000000000E+00 0. -1.
         21    1    1    2  506  501  0.32730784412E+02 -0.10905284669E+03 -0.15082646985E+03  0.18897738390E+03  0.00000000000E+00 0. -1.
<scales pt_clust_3="40.64713" pt_clust_4="44.83617" pt_clust_5="76.97410" pt_clust_6="14000.00000"></scales>
<clustering>
<clus scale="   40.647">  2  3  1 -1</clus>
<clus scale="   44.836">  1  4  2 -1</clus>
<clus scale="   76.974">  2  5  1 -1</clus>
<clus scale="   44.836">  1  3  2 -1</clus>
</clustering>
</event>
<event>
 6    0  0.1555973E+002  0.1635926E+03  0.7546771E-02  0.1184699E+00
         21   -1    0    0  503  501  0.00000000000E+00  0.00000000000E+00  0.92146209246E+03  0.92146209246E+03  0.00000000000E+00 0.  1.
         21   -1    0    0  506  502 -0.00000000000E+00 -0.00000000000E+00 -0.38663777619E+02  0.38663777619E+02  0.00000000000E+00 0.  1.
         21    1    1    2  503  502  0.60815583443E+02  0.14364476645E+03  0.23331095332E+03  0.28065344298E+03  0.00000000000E+00 0.  1.
         21    1    1    2  504  501  0.29198796156E+02 -0.12000018299E+02  0.76141322114E+02  0.82426155251E+02  0.00000000000E+00 0.  1.
         21    1    1    2  505  504 -0.50726101427E+02 -0.64763933262E+02  0.37832598033E+03  0.38716669771E+03  0.00000000000E+00 0.  1.
         21    1    1    2  506  505 -0.39288278173E+02 -0.66880814884E+02  0.19502005908E+03  0.20987957415E+03  0.00000000000E+00 0.  1.
<scales pt_clust_3="156.38696" pt_clust_4="31.56850" pt_clust_5="47.19057" pt_clust_6="47.19057"></scales>
<clustering>
<clus scale="   31.568">  1  4  2 -1</clus>
<clus scale="   47.191">  5  6 -1 -1</clus>
<clus scale="  156.387">  2  3  1 -1</clus>
<clus scale="   31.568">  1  3  2 -1</clus>
</clustering>
</event>
<event>
 6    0  0.1555973E+002  0.1703449E+03  0.7546771E-02  0.1177489E+00
         21   -1    0    0  504  501  0.00000000000E+00  0.00000000000E+00  0.22222770323E+03  0.22222770323E+03  0.00000000000E+00 0.  1.
         21   -1    0    0  503  502 -0.00000000000E+00 -0.00000000000E+00 -0.31344214523E+03  0.31344214523E+03  0.00000000000E+00 0. -1.
         21    1    1    2  503  501 -0.16423641091E+02 -0.26699611036E+02 -0.11718472648E+01  0.31368430662E+02  0.00000000000E+00 0.  1.
         21    1    1    2  504  506 -0.86735830470E+02 -0.60722572427E+02  0.11678465964E+03  0.15763562991E+03  0.00000000000E+00 0.  1.
         21    1    1    2  505  502  0.14432814908E+03  0.76768036872E+02 -0.24161659577E+03  0.29172337146E+03  0.00000000000E+00 0. -1.
         21    1    1    2  506  505 -0.41168677518E+02  0.10654146591E+02  0.34789341392E+02  0.54942416425E+02  0.00000000000E+00 0.  1.
<scales pt_clust_3="31.34653" pt_clust_4="34.68655" pt_clust_5="160.21567" pt_clust_6="34.68655"></scales>
<clustering>
<clus scale="   31.347">  1  3  2 -1</clus>
<clus scale="   34.687">  4  6 -1 -1</clus>
<clus scale="  160.216">  2  5  1 -1</clus>
<clus scale="   31.347">  1  3  2 -1</clus>
</clustering>
</event>
<event>
 6    0  0.1555973E+002  0.1648311E+03  0.7546771E-02  0.1183348E+00
         21   -1    0    0  503  501  0.00000000000E+00  0.00000000000E+00  0.87290746834E+03  0.87290746834E+03  0.00000000000E+00 0. -1.
         21   -1    0    0  504  502 -0.00000000000E+00 -0.00000000000E+00 -0.31861841343E+03  0.31861841343E+03  0.00000000000E+00 0. -1.
         21    1    1    2  503  505  0.10783079196E+03 -0.22516954874E+02  0.70617654377E+03  0.71471658993E+03  0.00000000000E+00 0. -1.
         21    1    1    2  504  506  0.43592084734E+02 -0.14138387615E+02  0.23457967026E+02  0.51482424892E+02  0.00000000000E+00 0. -1.
         21    1    1    2  505  502 -0.16670596436E+03 -0.24799865401E+01 -0.27251096078E+03  0.31946713858E+03  0.00000000000E+00 0. -1.
         21    1    1    2  506  501  0.15283087668E+02  0.39135329030E+02  0.97165504899E+02  0.10585972836E+03  0.00000000000E+00 0. -1.
<scales pt_clust_3="14000.00000" pt_clust_4="45.99237" pt_clust_5="164.83113" pt_clust_6="42.01365"></scales>
<clustering>
<clus scale="   42.014">  1  6  2 -1</clus>
<clus scale="   45.992">  1  4  2 -1</clus>
<clus scale="  164.831">  2  5  1 -1</clus>
<clus scale="   42.014">  1  3  2 -1</clus>
</clustering>
</event>
<event>
 6    0  0.1555973E+002  0.1769786E+03  0.7546771E-02  0.1170760E+00
         21   -1    0    0  503  501  0.00000000000E+00  0.00000000000E+00  0.52967187340E+03  0.52967187340E+03  0.00000000000E+00 0. -1.
         21   -1    0    0  506  502 -0.00000000000E+00 -0.00000000000E+00 -0.37908874292E+03  0.37908874292E+03  0.00000000000E+00 0. -1.
         21    1    1    2  503  502  0.91101380931E+02 -0.75273335894E+02  0.19546929082E+03  0.22841580584E+03  0.00000000000E+00 0.  1.
         21    1    1    2  504  505 -0.54146297929E+02  0.59334076435E+02  0.74370106684E+02  0.10946810939E+03  0.00000000000E+00 0. -1.
         21    1    1    2  505  501 -0.43994677284E+02  0.17703673534E+03  0.16376256728E+03  0.24514427534E+03  0.00000000000E+00 0. -1.
         21    1    1    2  506  504  0.70395942810E+01 -0.16109747588E+03 -0.28301883430E+03  0.32573242576E+03  0.00000000000E+00 0. -1.
<scales pt_clust_3="118.17587" pt_clust_4="39.48126" pt_clust_5="39.48126" pt_clust_6="166.67770"></scales>
<clustering>
<clus scale="   39.481">  4  5 -1 -1</clus>
<clus scale="  118.176">  1  3  2 -1</clus>
<clus scale="  166.678">  2  6  1 -1</clus>
<clus scale="  118.176">  1  3  2 -1</clus>
</clustering>
</event>
<event>
 6    0  0.1555973E+002  0.1070017E+03  0.7546771E-02  0.1266225E+00
         21   -1    0    0  505  501  0.00000000000E+00  0.00000000000E+00  0.86230311123E+03  0.86230311123E+03  0.00000000000E+00 0. -1.
         21   -1    0    0  504  502 -0.00000000000E+00 -0.00000000000E+00 -0.18264669028E+03  0.18264669028E+03  0.00000000000E+00 0.  1.
         21    1    1    2  503  501 -0.21509127279E+02  0.28250888935E+02  0.99911307846E+02  0.10603313028E+03  0.00000000000E+00 0.  1.
         21    1    1    2  504  503  0.11403491352E+03 -0.10673570313E+03  0.10754857665E+03  0.18963957436E+03  0.00000000000E+00 0. -1.
         21    1    1    2  505  506 -0.29930984378E+02  0.66105217190E+02  0.60109018086E+03  0.60545451447E+03  0.00000000000E+00 0. -1.
         21    1    1    2  506  502 -0.62594801869E+02  0.12379597002E+02 -0.12889364440E+03  0.14382258241E+03  0.00000000000E+00 0.  1.
<scales pt_clust_3="35.50712" pt_clust_4="14000.00000" pt_clust_5="107.00171" pt_clust_6="64.06896"></scales>
<clustering>
<clus scale="   35.507">  1  3  2 -1</clus>
<clus scale="   64.069">  2  6  1 -1</clus>
<clus scale="  107.002">  1  5  2 -1</clus>
<clus scale="   35.507">  1  3  2 -1</clus>
</clustering>
</event>
<event>
 6    0  0.1555973E+002  0.7058487E+02  0.7546771E-02  0.1358115E+00
         21   -1    0    0  506  501  0.00000000000E+00  0.00000000000E+00  0.55606095055E+02  0.55606095055E+02  0.00000000000E+00 0. -1.
         21   -1    0    0  503  502 -0.00000000000E+00 -0.00000000000E+00 -0.14235382973E+04  0.14235382973E+04  0.00000000000E+00 0. -1.
         21    1    1    2  503  505  0.83885450349E+02  0.16172385344E+02 -0.11335851108E+03  0.14194529532E+03  0.00000000000E+00 0.  1.
         21    1    1    2  504  502 -0.46387853309E+02  0.41360615230E+02 -0.11948742457E+04  0.11964894469E+04  0.00000000000E+00 0. -1.
         21    1    1    2  505  501  0.31397685043E+02 -0.39394469909E+02 -0.45882563634E+02  0.68139184990E+02  0.00000000000E+00 0.  1.
         21    1    1    2  506  504 -0.68895282083E+02 -0.18138530665E+02 -0.13816881785E+02  0.72570465137E+02  0.00000000000E+00 0. -1.
<scales pt_clust_3="70.58487" pt_clust_4="61.24792" pt_clust_5="50.37598" pt_clust_6="14000.00000"></scales>
<clustering>
<clus scale="   50.376">  1  5  2 -1</clus>
<clus scale="   61.248">  2  4  1 -1</clus>
<clus scale="   70.585">  2  3  1 -1</clus>
<clus scale="   50.376">  1  3  2 -1</clus>
</clustering>
</event>
<event>
 6    0  0.1555973E+002  0.1262741E+03  0.7546771E-02  0.1233091E+00
         21   -1    0    0  505  501  0.00000000000E+00  0.00000000000E+00  0.16847500017E+03  0.16847500017E+03  0.00000000000E+00 0. -1.
         21   -1    0    0  504  502 -0.00000000000E+00 -0.00000000000E+00 -0.34714641533E+03  0.34714641533E+03  0.00000000000E+00 0.  1.
         21    1    1    2  503  506  0.56499298298E+02 -0.16942024957E+02  0.22929647950E+02  0.63284845523E+02  0.00000000000E+00 0. -1.
         21    1    1    2  504  501 -0.14290179992E+02 -0.11076111903E+03  0.20491316174E+02  0.11354351048E+03  0.00000000000E+00 0. -1.
         21    1    1    2  505  503  0.37745952682E+02  0.16941477591E+02  0.30654162851E+02  0.51492215984E+02  0.00000000000E+00 0. -1.
         21    1    1    2  506  502 -0.79955070988E+02  0.11076166640E+03 -0.25274654214E+03  0.28730084351E+03  0.00000000000E+00 0.  1.
<scales pt_clust_3="101.50147" pt_clust_4="126.27406" pt_clust_5="31.56414" pt_clust_6="14000.00000"></scales>
<clustering>
<clus scale="   31.564">  3  5 -1 -1</clus>
<clus scale="  101.501">  1  3  2 -1</clus>
<clus scale="  126.274">  1  4  2 -1</clus>
<clus scale="  101.501">  1  3  2 -1</clus>
</clustering>
</event>
<event>
 6    0  0.1555973E+002  0.1371644E+03  0.7546771E-02  0.1217196E+00
         21   -1    0    0  503  501  0.00000000000E+00  0.00000000000E+00  0.59441294015E+03  0.59441294015E+03  0.00000000000E+00 0. -1.
         21   -1    0    0  505  502 -0.00000000000E+00 -0.00000000000E+00 -0.13176676962E+03  0.13176676962E+03  0.00000000000E+00 0. -1.
         21    1    1    2  503  504 -0.15774541426E+02  0.69193756636E+02  0.20152188884E+03  0.21365318578E+03  0.00000000000E+00 0.  1.
         21    1    1    2  504  506 -0.17511994384E+02  0.56642085551E+02  0.30342462379E+03  0.30916257556E+03  0.00000000000E+00 0. -1.
         21    1    1    2  505  501 -0.29263051247E+02  0.16164625088E+02  0.16686451454E+02  0.37363872051E+02  0.00000000000E+00 0.  1.
         21    1    1    2  506  502  0.62549587057E+02 -0.14200046727E+03 -0.58986793551E+02  0.16600007639E+03  0.00000000000E+00 0. -1.
<scales pt_clust_3="34.36971" pt_clust_4="34.36971" pt_clust_5="33.43084" pt_clust_6="131.87638"></scales>
<clustering>
<clus scale="   33.431">  2  5  1 -1</clus>
<clus scale="   34.370">  3  4 -1 -1</clus>
<clus scale="  131.876">  2  6  1 -1</clus>
<clus scale="  137.164">  1  3  2 -1</clus>
</clustering>
</event>
<event>
 6    0  0.1555973E+002  0.1106197E+03  0.7546771E-02  0.1259427E+00
         21   -1    0    0  506  501  0.00000000000E+00  0.00000000000E+00  0.74233391542E+02  0.74233391542E+02  0.00000000000E+00 0.  1.
         21   -1    0    0  504  502 -0.00000000000E+00 -0.00000000000E+00 -0.37448421005E+03  0.37448421005E+03  0.00000000000E+00 0.  1.
         21    1    1    2  503  501 -0.79962382993E+02 -0.23859408044E+01 -0.51282706193E+02  0.95024161990E+02  0.00000000000E+00 0.  1.
         21    1    1    2  504  505  0.30563609194E+02  0.58918048040E+02 -0.17557478127E+02  0.68656650297E+02  0.00000000000E+00 0.  1.
         21    1    1    2  505  503  0.65534060528E+02  0.11313844814E+02 -0.32036334311E+02  0.73817632649E+02  0.00000000000E+00 0.  1.
         21    1    1    2  506  502 -0.16135286730E+02 -0.67845952049E+02 -0.19937429987E+03  0.21121915665E+03  0.00000000000E+00 0.  1.
<scales pt_clust_3="92.54524" pt_clust_4="60.53865" pt_clust_5="60.53865" pt_clust_6="69.73823"></scales>
<clustering>
<clus scale="   60.539">  4  5 -1 -1</clus>
<clus scale="   69.738">  2  6  1 -1</clus>
<clus scale="   92.545">  1  3  2 -1</clus>
<clus scale="   92.545">  1  3  2 -1</clus>
</clustering>
</event>
<event>
 6    0  0.1555973E+002  0.1154764E+03  0.7546771E-02  0.1250752E+00
         21   -1    0    0  505  501  0.00000000000E+00  0.00000000000E+00  0.36070579852E+03  0.36070579852E+03  0.00000000000E+00 0. -1.
         21   -1    0    0  506  502 -0.00000000000E+00 -0.00000000000E+00 -0.20782151582E+03  0.20782151582E+03  0.00000000000E+00 0. -1.
         21    1    1    2  503  501  0.10229545623E+03 -0.61362260966E+02  0.16390076046E+03  0.20271444624E+03  0.00000000000E+00 0. -1.
         21    1    1    2  504  502 -0.34430304535E+02  0.10010735798E+02  0.51633665069E+02  0.62862517210E+02  0.00000000000E+00 0. -1.
         21    1    1    2  505  504 -0.26644380198E+02  0.67352167144E+02  0.10612092715E+03  0.12848302843E+03  0.00000000000E+00 0. -1.
         21    1    1    2  506  503 -0.41220771499E+02 -0.16000641977E+02 -0.16877106997E+03  0.17446732246E+03  0.00000000000E+00 0. -1.
<scales pt_clust_3="106.41118" pt_clust_4="31.55560" pt_clust_5="31.55560" pt_clust_6="44.21733"></scales>
<clustering>
<clus scale="   31.556">  4  5 -1 -1</clus>
<clus scale="   44.217">  2  6  1 -1</clus>
<clus scale="  106.411">  2  3  1 -1</clus>
<clus scale="  115.476">  1  3  2 -1</clus>
</clustering>
</event>
<event>
 6    0  0.1555973E+002  0.7458857E+02  0.7546771E-02  0.1345150E+00
         21   -1    0    0  505  501  0.00000000000E+00  0.00000000000E+00  0.31066759421E+03  0.31066759421E+03  0.00000000000E+00 0.  1.
         21   -1    0    0  506  502 -0.00000000000E+00 -0.00000000000E+00 -0.12468949015E+03  0.12468949015E+03  0.00000000000E+00 0.  1.
         21    1    1    2  503  504  0.10164974262E+02  0.33166412725E+02  0.37070078264E+02  0.50769364161E+02  0.00000000000E+00 0.  1.
         21    1    1    2  504  502  0.43969382144E+02  0.57722594651E+02 -0.82306794595E+02  0.10972517002E+03  0.00000000000E+00 0.  1.
         21    1    1    2  505  503 -0.27494092518E+02  0.19775586541E+02  0.40856257203E+02  0.53068189144E+02  0.00000000000E+00 0.  1.
         21    1    1    2  506  501 -0.26640263888E+02 -0.11066459392E+03  0.19035856319E+03  0.22179436103E+03  0.00000000000E+00 0.  1.
<scales pt_clust_3="36.88542" pt_clust_4="14000.00000" pt_clust_5="33.86737" pt_clust_6="74.58857"></scales>
<clustering>
<clus scale="   33.867">  1  5  2 -1</clus>
<clus scale="   36.885">  1  3  2 -1</clus>
<clus scale="   74.589">  1  6  2 -1</clus>
<clus scale="   33.867">  1  3  2 -1</clus>
</clustering>
</event>
<event>
 6    0  0.1555973E+002  0.1319012E+03  0.7546771E-02  0.1224662E+00
         21   -1    0    0  502  501  0.00000000000E+00  0.00000000000E+00  0.30128023419E+02  0.30128023419E+02  0.00000000000E+00 0.  1.
         21   -1    0    0  504  502 -0.00000000000E+00 -0.00000000000E+00 -0.26009728125E+04  0.26009728125E+04  0.00000000000E+00 0.  1.
         21    1    1    2  503  506  0.99605626616E+02  0.22494195044E+01 -0.35067652464E+03  0.36455502421E+03  0.00000000000E+00 0.  1.
         21    1    1    2  504  503  0.23867303243E+02 -0.52874717315E+02 -0.20088487427E+04  0.20096862081E+04  0.00000000000E+00 0.  1.
         21    1    1    2  505  501 -0.73275700035E+02  0.29543022081E+02 -0.70525804801E+02  0.10590565382E+03  0.00000000000E+00 0.  1.
         21    1    1    2  506  505 -0.50197229825E+02  0.21082275729E+02 -0.14079371693E+03  0.15095394979E+03  0.00000000000E+00 0.  1.
<scales pt_clust_3="117.83669" pt_clust_4="58.01193" pt_clust_5="49.19813" pt_clust_6="49.19813"></scales>
<clustering>
<clus scale="   49.198">  5  6 -1 -1</clus>
<clus scale="   58.012">  2  4  1 -1</clus>
<clus scale="  117.837">  2  3  1 -1</clus>
<clus scale="  131.901">  1  3  2 -1</clus>
</clustering>
</event>
<event>
 6    0  0.1555973E+002  0.9660547E+02  0.7546771E-02  0.1287601E+00
         21   -1    0    0  503  501  0.00000000000E+00  0.00000000000E+00  0.41679957412E+02  0.41679957412E+02  0.00000000000E+00 0. -1.
         21   -1    0    0  504  502 -0.00000000000E+00 -0.00000000000E+00 -0.11049152953E+04  0.11049152953E+04  0.00000000000E+00 0.  1.
         21    1    1    2  503  506 -0.71326740384E+02 -0.79698087319E+02 -0.80211325247E+02  0.13369048475E+03  0.00000000000E+00 0. -1.
         21    1    1    2  504  501  0.36853208669E+02 -0.62021504624E+02 -0.21919459944E+03  0.23076199524E+03  0.00000000000E+00 0. -1.
         21    1    1    2  505  502  0.73019210408E+01  0.67194433272E+02 -0.54883935003E+03  0.55298557129E+03  0.00000000000E+00 0.  1.
         21    1    1    2  506  505  0.27171610674E+02  0.74525158670E+02 -0.21499006316E+03  0.22915720141E+03  0.00000000000E+00 0.  1.
<scales pt_clust_3="96.60547" pt_clust_4="52.83911" pt_clust_5="67.59001" pt_clust_6="14000.00000"></scales>
<clustering>
<clus scale="   67.590">  2  5  1 -1</clus>
<clus scale="   52.839">  2  4  1 -1</clus>
<clus scale="   96.605">  1  3  2 -1</clus>
<clus scale="   96.605">  1  3  2 -1</clus>
</clustering>
</event>
<event>
 6    0  0.1555973E+002  0.1022225E+03  0.7546771E-02  0.1275691E+00
         21   -1    0    0  506  501  0.00000000000E+00  0.00000000000E+00  0.51289612485E+03  0.51289612485E+03  0.00000000000E+00 0.  1.
         21   -1    0    0  505  502 -0.00000000000E+00 -0.00000000000E+00 -0.72831171983E+02  0.72831171983E+02  0.00000000000E+00 0.  1.
         21    1    1    2  503  504  0.46384343492E+02  0.13249810765E+02  0.81288134314E+02  0.94524206353E+02  0.00000000000E+00 0.  1.
         21    1    1    2  504  501  0.33399977665E+02  0.35890179617E+01  0.17204849394E+03  0.17529724420E+03  0.00000000000E+00 0.  1.
         21    1    1    2  505  503 -0.98476101393E+01 -0.10578239381E+03  0.10872138619E+02  0.10679463312E+03  0.00000000000E+00 0.  1.
         21    1    1    2  506  502 -0.69936711018E+02  0.88943565079E+02  0.17585618600E+03  0.20911121317E+03  0.00000000000E+00 0.  1.
<scales pt_clust_3="56.83684" pt_clust_4="33.59225" pt_clust_5="102.22250" pt_clust_6="14000.00000"></scales>
<clustering>
<clus scale="   33.592">  1  4  2 -1</clus>
<clus scale="   56.837">  1  3  2 -1</clus>
<clus scale="  102.222">  2  5  1 -1</clus>
<clus scale="   33.592">  1  3  2 -1</clus>
</clustering>
</event>
<event>
 6    0  0.2741678E+002  0.9248817E+02  0.7546771E-02  0.1296936E+00
         21   -1    0    0  504  501  0.00000000000E+00  0.00000000000E+00  0.96715107536E+03  0.96715107536E+03  0.00000000000E+00 0. -1.
         21   -1    0    0  505  502 -0.00000000000E+00 -0.00000000000E+00 -0.45434583615E+03  0.45434583615E+03  0.00000000000E+00 0.  1.
         21    1    1    2  503  501 -0.61085926649E+02  0.50214493510E+02  0.25938540206E+03  0.27117111313E+03  0.00000000000E+00 0. -1.
         21    1    1    2  504  506 -0.34013254856E+02  0.22846727627E+02  0.65330244814E+03  0.65458610069E+03  0.00000000000E+00 0. -1.
         21    1    1    2  505  503  0.37627994464E+02 -0.84939515867E+02 -0.42268926493E+03  0.43277800546E+03  0.00000000000E+00 0.  1.
         21    1    1    2  506  502  0.57471187040E+02  0.11878294729E+02  0.22806653934E+02  0.62961692236E+02  0.00000000000E+00 0.  1.
<scales pt_clust_3="14000.00000" pt_clust_4="40.97407" pt_clust_5="92.48817" pt_clust_6="54.90468"></scales>
<clustering>
<clus scale="   40.974">  1  4  2 -1</clus>
<clus scale="   54.905">  1  6  2 -1</clus>
<clus scale="   92.488">  2  5  1 -1</clus>
<clus scale="   40.974">  1  3  2 -1</clus>
</clustering>
</event>
<event>
 6    0  0.1555973E+002  0.2115746E+03  0.7546771E-02  0.1140325E+00
         21   -1    0    0  506  501  0.00000000000E+00  0.00000000000E+00  0.92452209714E+03  0.92452209714E+03  0.00000000000E+00 0. -1.
         21   -1    0    0  505  502 -0.00000000000E+00 -0.00000000000E+00 -0.17005617721E+03  0.17005617721E+03  0.00000000000E+00 0.  1.
         21    1    1    2  503  501 -0.23824168461E+02  0.51933246630E+02  0.12646865006E+03  0.13877670034E+03  0.00000000000E+00 0.  1.
         21    1    1    2  504  503 -0.13062571726E+03  0.73211231767E+02  0.68802729561E+03  0.70413388072E+03  0.00000000000E+00 0. -1.
         21    1    1    2  505  504  0.92448817708E+02 -0.10030960248E+03 -0.10414431284E+03  0.17162411877E+03  0.00000000000E+00 0.  1.
         21    1    1    2  506  502  0.62001068014E+02 -0.24834875919E+02  0.44114287103E+02  0.80043574529E+02  0.00000000000E+00 0.  1.
<scales pt_clust_3="53.77535" pt_clust_4="53.77535" pt_clust_5="192.83447" pt_clust_6="66.79000"></scales>
<clustering>
<clus scale="   53.775">  3  4 -1 -1</clus>
<clus scale="   66.790">  2  6  1 -1</clus>
<clus scale="  192.834">  2  5  1 -1</clus>
<clus scale="  211.575">  1  3  2 -1</clus>
</clustering>
</event>
<event>
 6    0  0.1555973E+002  0.1465598E+03  0.7546771E-02  0.1204765E+00
         21   -1    0    0  506  501  0.00000000000E+00  0.00000000000E+00  0.60915151322E+03  0.60915151322E+03  0.00000000000E+00 0.  1.
         21   -1    0    0  501  502 -0.00000000000E+00 -0.00000000000E+00 -0.34821517501E+03  0.34821517501E+03  0.00000000000E+00 0.  1.
         21    1    1    2  503  502 -0.14157048350E+03 -0.70504313379E+01 -0.29042367420E+03  0.32316840952E+03  0.00000000000E+00 0.  1.
         21    1    1    2  504  503  0.43173088109E+02 -0.30421738219E+02  0.88620771828E+00  0.52822183382E+02  0.00000000000E+00 0.  1.
         21    1    1    2  505  504  0.53794007755E+02  0.14944636435E+02  0.40533822946E+02  0.68993682545E+02  0.00000000000E+00 0.  1.
         21    1    1    2  506  505  0.44603387637E+02  0.22527533122E+02  0.50993998175E+03  0.51238241278E+03  0.00000000000E+00 0.  1.
<scales pt_clust_3="134.15834" pt_clust_4="50.24221" pt_clust_5="50.24221" pt_clust_6="49.96951"></scales>
<clustering>
<clus scale="   49.970">  1  6  2 -1</clus>
<clus scale="   50.242">  4  5 -1 -1</clus>
<clus scale="  134.158">  2  3  1 -1</clus>
<clus scale="   49.970">  1  3  2 -1</clus>
</clustering>
</event>
<event>
 6    0  0.1555973E+002  0.1487925E+03  0.7546771E-02  0.1201965E+00
         21   -1    0    0  505  501  0.00000000000E+00  0.00000000000E+00  0.73956436655E+03  0.73956436655E+03  0.00000000000E+00 0.  1.
         21   -1    0    0  504  502 -0.00000000000E+00 -0.00000000000E+00 -0.87626378337E+03  0.87626378337E+03  0.00000000000E+00 0. -1.
         21    1    1    2  503  502 -0.11744746303E+03  0.93470826847E+02 -0.68026208337E+02  0.16479765491E+03  0.00000000000E+00 0.  1.
         21    1    1    2  504  506 -0.35024458386E+02  0.51504544499E+01 -0.73271829998E+03  0.73357300045E+03  0.00000000000E+00 0. -1.
         21    1    1    2  505  503  0.79412344965E+02 -0.12644422679E+03  0.59403717903E+03  0.61251500642E+03  0.00000000000E+00 0.  1.
         21    1    1    2  506  501  0.73059576450E+02  0.27822945496E+02  0.70007912479E+02  0.10494248814E+03  0.00000000000E+00 0. -1.
<scales pt_clust_3="148.79253" pt_clust_4="35.40113" pt_clust_5="14000.00000" pt_clust_6="74.43692"></scales>
<clustering>
<clus scale="   35.401">  2  4  1 -1</clus>
<clus scale="   74.437">  2  6  1 -1</clus>
<clus scale="  148.793">  2  3  1 -1</clus>
<clus scale="  148.793">  1  3  2 -1</clus>
</clustering>
</event>
<event>
 6    0  0.1555973E+002  0.1709045E+03  0.7546771E-02  0.1176908E+00
         21   -1    0    0  506  501  0.00000000000E+00  0.00000000000E+00  0.24166572601E+03  0.24166572601E+03  0.00000000000E+00 0. -1.
         21   -1    0    0  505  502 -0.00000000000E+00 -0.00000000000E+00 -0.29302536281E+03  0.29302536281E+03  0.00000000000E+00 0.  1.
         21    1    1    2  503  501  0.12245958179E+03 -0.71251841219E+02 -0.19993999693E+03  0.24504933467E+03  0.00000000000E+00 0.  1.
         21    1    1    2  504  502 -0.11891185661E+03  0.61672553471E+02  0.13146777580E+03  0.18768939652E+03  0.00000000000E+00 0. -1.
         21    1    1    2  505  503  0.32146756908E+02  0.27479138570E+02 -0.20587793507E+02  0.47035882874E+02  0.00000000000E+00 0.  1.
         21    1    1    2  506  504 -0.35694482082E+02 -0.17899850821E+02  0.37700377835E+02  0.54916474754E+02  0.00000000000E+00 0. -1.
<scales pt_clust_3="157.44128" pt_clust_4="36.30100" pt_clust_5="42.29086" pt_clust_6="36.30100"></scales>
<clustering>
<clus scale="   36.301">  4  6 -1 -1</clus>
<clus scale="   42.291">  2  5  1 -1</clus>
<clus scale="  157.441">  2  3  1 -1</clus>
<clus scale="  170.904">  1  3  2 -1</clus>
</clustering>
</event>
<event>
 6    0  0.1555973E+002  0.2058909E+03  0.7546771E-02  0.1144862E+00
         21   -1    0    0  503  501  0.00000000000E+00  0.00000000000E+00  0.83987901498E+03  0.83987901498E+03  0.00000000000E+00 0.  1.
         21   -1    0    0  505  502 -0.00000000000E+00 -0.00000000000E+00 -0.35961327086E+03  0.35961327086E+03  0.00000000000E+00 0.  1.
         21    1    1    2  503  506  0.93985101282E+02  0.17527600248E+03  0.70779429088E+03  0.73520584499E+03  0.00000000000E+00 0.  1.
         21    1    1    2  504  502 -0.66300714136E+02 -0.39733566921E+02  0.24748576560E+02  0.81160538915E+02  0.00000000000E+00 0. -1.
         21    1    1    2  505  501  0.11260608428E+02 -0.30259184805E+02 -0.26785581409E+03  0.26979465657E+03  0.00000000000E+00 0.  1.
         21    1    1    2  506  504 -0.38944995574E+02 -0.10528325076E+03  0.15578690775E+02  0.11333124537E+03  0.00000000000E+00 0. -1.
<scales pt_clust_3="195.69576" pt_clust_4="50.91391" pt_clust_5="32.28652" pt_clust_6="50.91391"></scales>
<clustering>
<clus scale="   32.287">  2  5  1 -1</clus>
<clus scale="   50.914">  4  6 -1 -1</clus>
<clus scale="  195.696">  1  3  2 -1</clus>
<clus scale="  195.696">  1  3  2 -1</clus>
</clustering>
</event>
<event>
 6    0  0.1555973E+002  0.1454351E+03  0.7546771E-02  0.1206197E+00
         21   -1    0    0  504  501  0.00000000000E+00  0.00000000000E+00  0.24356704654E+02  0.24356704654E+02  0.00000000000E+00 0. -1.
         21   -1    0    0  505  502 -0.00000000000E+00 -0.00000000000E+00 -0.20266203556E+04  0.20266203556E+04  0.00000000000E+00 0. -1.
         21    1    1    2  503  502 -0.86440602720E+02  0.16619012195E+02 -0.19345893783E+03  0.21254300739E+03  0.00000000000E+00 0. -1.
         21    1    1    2  504  503 -0.27933373371E+02  0.34969549144E+02 -0.14510123282E+03  0.15184699694E+03  0.00000000000E+00 0. -1.
         21    1    1    2  505  506 -0.18806553240E+02  0.27251462029E+02 -0.11403149213E+04  0.11407955332E+04  0.00000000000E+00 0. -1.
         21    1    1    2  506  501  0.13318052933E+03 -0.78840023368E+02 -0.52338855896E+03  0.54579152277E+03  0.00000000000E+00 0. -1.
<scales pt_clust_3="36.02012" pt_clust_4="36.02012" pt_clust_5="33.11085" pt_clust_6="136.88343"></scales>
<clustering>
<clus scale="   33.111">  2  5  1 -1</clus>
<clus scale="   36.020">  3  4 -1 -1</clus>
<clus scale="  136.883">  2  6  1 -1</clus>
<clus scale="  145.435">  1  3  2 -1</clus>
</clustering>
</event>
<event>
 6    0  0.1956917E+002  0.1505049E+03  0.7546771E-02  0.1199854E+00
         21   -1    0    0  505  501  0.00000000000E+00  0.00000000000E+00  0.60406171770E+03  0.60406171770E+03  0.00000000000E+00 0.  1.
         21   -1    0    0  504  502 -0.00000000000E+00 -0.00000000000E+00 -0.74001322388E+03  0.74001322388E+03  0.00000000000E+00 0. -1.
         21    1    1    2  503  506  0.19711823167E+02  0.96551287347E+02  0.38579844568E+03  0.39818481607E+03  0.00000000000E+00 0.  1.
         21    1    1    2  504  501  0.40601045446E+02 -0.87511022214E+01 -0.89647518678E+01  0.42489921834E+02  0.00000000000E+00 0. -1.
         21    1    1    2  505  503  0.38947816273E+02  0.33980702749E+02  0.18296818201E+03  0.19012884100E+03  0.00000000000E+00 0.  1.
         21    1    1    2  506  502 -0.99260684886E+02 -0.12178088787E+03 -0.69575338201E+03  0.71327136266E+03  0.00000000000E+00 0. -1.
<scales pt_clust_3="33.48710" pt_clust_4="41.53344" pt_clust_5="33.48710" pt_clust_6="143.22637"></scales>
<clustering>
<clus scale="   33.487">  3  5 -1 -1</clus>
<clus scale="   41.533">  2  4  1 -1</clus>
<clus scale="  143.226">  2  6  1 -1</clus>
<clus scale="  150.505">  1  3  2 -1</clus>
</clustering>
</event>
<event>
 6    0  0.1555973E+002  0.1202892E+03  0.7546771E-02  0.1242621E+00
         21   -1    0    0  502  501  0.00000000000E+00  0.00000000000E+00  0.16074986857E+03  0.16074986857E+03  0.00000000000E+00 0.  1.
         21   -1    0    0  504  502 -0.00000000000E+00 -0.00000000000E+00 -0.25023873214E+03  0.25023873214E+03  0.00000000000E+00 0.  1.
         21    1    1    2  503  506  0.72976586250E+02  0.20934013652E+02  0.30046024719E+02  0.81649119222E+02  0.00000000000E+00 0.  1.
         21    1    1    2  504  503 -0.10493217361E+03  0.39263523388E+02 -0.17592083250E+03  0.20856779386E+03  0.00000000000E+00 0.  1.
         21    1    1    2  505  501 -0.23578359706E+02 -0.42037430788E+02  0.22060704725E+02  0.53007162975E+02  0.00000000000E+00 0.  1.
         21    1    1    2  506  505  0.55533947064E+02 -0.18160106251E+02  0.34325239486E+02  0.67764524652E+02  0.00000000000E+00 0. -1.
<scales pt_clust_3="35.72243" pt_clust_4="113.18734" pt_clust_5="48.19839" pt_clust_6="35.72243"></scales>
<clustering>
<clus scale="   35.722">  3  6 -1 -1</clus>
<clus scale="   48.198">  1  5  2 -1</clus>
<clus scale="  113.187">  2  4  1 -1</clus>
<clus scale="   48.198">  1  3  2 -1</clus>
</clustering>
</event>
<event>
 6    0  0.1555973E+002  0.1389125E+03  0.7546771E-02  0.1214800E+00
         21   -1    0    0  504  501  0.00000000000E+00  0.00000000000E+00  0.46170335150E+03  0.46170335150E+03  0.00000000000E+00 0. -1.
         21   -1    0    0  506  502 -0.00000000000E+00 -0.00000000000E+00 -0.59774110565E+03  0.59774110565E+03  0.00000000000E+00 0.  1.
         21    1    1    2  503  505 -0.33664252907E+02  0.55746143117E+02  0.18911913224E+03  0.20001740069E+03  0.00000000000E+00 0. -1.
         21    1    1    2  504  502 -0.56726042467E+02  0.18028665541E+02  0.18604517839E+02  0.62361885468E+02  0.00000000000E+00 0.  1.
         21    1    1    2  505  501 -0.30049564076E+02  0.25859479835E+01  0.21667785621E+03  0.21876690060E+03  0.00000000000E+00 0. -1.
         21    1    1    2  506  503  0.12043985945E+03 -0.76360756641E+02 -0.56043926044E+03  0.57829827040E+03  0.00000000000E+00 0.  1.
<scales pt_clust_3="14000.00000" pt_clust_4="64.41329" pt_clust_5="30.16063" pt_clust_6="138.91253"></scales>
<clustering>
<clus scale="   30.161">  1  5  2 -1</clus>
<clus scale="   64.413">  1  4  2 -1</clus>
<clus scale="  138.913">  2  6  1 -1</clus>
<clus scale="   30.161">  1  3  2 -1</clus>
</clustering>
</event>
<event>
 6    0  0.1555973E+002  0.1373711E+03  0.7546771E-02  0.1216911E+00
         21   -1    0    0  503  501  0.00000000000E+00  0.00000000000E+00  0.25621588510E+02  0.25621588510E+02  0.00000000000E+00 0.  1.
         21   -1    0    0  506  502 -0.00000000000E+00 -0.00000000000E+00 -0.77600676890E+03  0.77600676890E+03  0.00000000000E+00 0.  1.
         21    1    1    2  503  504  0.68336888591E+02 -0.45067645058E+02 -0.20424543364E+03  0.22003913320E+03  0.00000000000E+00 0.  1.
         21    1    1    2  504  502  0.29274742246E+02 -0.30727981741E+02 -0.26839284763E+03  0.27172769467E+03  0.00000000000E+00 0.  1.
         21    1    1    2  505  501 -0.42791826726E+02  0.58621360518E+02 -0.20303295295E+03  0.21561536199E+03  0.00000000000E+00 0.  1.
         21    1    1    2  506  505 -0.54819804111E+02  0.17174266281E+02 -0.74713946166E+02  0.94246167544E+02  0.00000000000E+00 0.  1.
<scales pt_clust_3="135.82219" pt_clust_4="40.57000" pt_clust_5="53.36425" pt_clust_6="53.36425"></scales>
<clustering>
<clus scale="   40.570">  3  4 -1 -1</clus>
<clus scale="   53.364">  5  6 -1 -1</clus>
<clus scale="  135.822">  2  3  1 -1</clus>
<clus scale="  137.371">  1  3  2 -1</clus>
</clustering>
</event>
<event>
 6    0  0.1555973E+002  0.1109557E+03  0.7546771E-02  0.1258810E+00
         21   -1    0    0  505  501  0.00000000000E+00  0.00000000000E+00  0.28315254246E+03  0.28315254246E+03  0.00000000000E+00 0. -1.
         21   -1    0    0  504  502 -0.00000000000E+00 -0.00000000000E+00 -0.71208837614E+03  0.71208837614E+03  0.00000000000E+00 0.  1.
         21    1    1    2  503  502 -0.56899438422E+02 -0.99347013779E+02 -0.65533968611E+03  0.66526496934E+03  0.00000000000E+00 0.  1.
         21    1    1    2  504  501  0.21581436370E+02 -0.41681033557E+02  0.64248102061E+01  0.47374519948E+02  0.00000000000E+00 0.  1.
         21    1    1    2  505  506  0.19719456569E+02  0.68124859920E+02  0.18899922178E+03  0.20186767780E+03  0.00000000000E+00 0. -1.
         21    1    1    2  506  503  0.15598545483E+02  0.72903187416E+02  0.30979820447E+02  0.80733751502E+02  0.00000000000E+00 0.  1.
<scales pt_clust_3="110.95567" pt_clust_4="46.93684" pt_clust_5="51.27610" pt_clust_6="14000.00000"></scales>
<clustering>
<clus scale="   46.937">  1  4  2 -1</clus>
<clus scale="   51.276">  1  5  2 -1</clus>
<clus scale="  110.956">  2  3  1 -1</clus>
<clus scale="   46.937">  1  3  2 -1</clus>
</clustering>
</event>
<event>
 6    0  0.1555973E+002  0.1353315E+03  0.7546771E-02  0.1219752E+00
         21   -1    0    0  503  501  0.00000000000E+00  0.00000000000E+00  0.37537342461E+02  0.37537342461E+02  0.00000000000E+00 0.  1.
         21   -1    0    0  505  502 -0.00000000000E+00 -0.00000000000E+00 -0.11965477184E+04  0.11965477184E+04  0.00000000000E+00 0. -1.
         21    1    1    2  503  504  0.16418003802E+03  0.14674143198E+02 -0.52670510109E+03  0.55189553258E+03  0.00000000000E+00 0. -1.
         21    1    1    2  504  502 -0.47978303976E+02 -0.16813718691E+02 -0.49110544935E+03  0.49372986660E+03  0.00000000000E+00 0. -1.
         21    1    1    2  505  506 -0.46155200333E+02  0.18248632321E+01 -0.91734162564E+02  0.10270729879E+03  0.00000000000E+00 0. -1.
         21    1    1    2  506  501 -0.70046533714E+02  0.31471226078E+00 -0.49465662888E+02  0.85752362849E+02  0.00000000000E+00 0.  1.
<scales pt_clust_3="127.44563" pt_clust_4="50.83915" pt_clust_5="36.96610" pt_clust_6="36.96610"></scales>
<clustering>
<clus scale="   36.966">  5  6 -1 -1</clus>
<clus scale="   50.839">  2  4  1 -1</clus>
<clus scale="  127.446">  2  3  1 -1</clus>
<clus scale="  135.332">  1  3  2 -1</clus>
</clustering>
</event>
<event>
 6    0  0.1555973E+002  0.1796006E+03  0.7546771E-02  0.1168190E+00
         21   -1    0    0  504  501  0.00000000000E+00  0.00000000000E+00  0.10289402463E+03  0.10289402463E+03  0.00000000000E+00 0. -1.
         21   -1    0    0  503  502 -0.00000000000E+00 -0.00000000000E+00 -0.23734991461E+04  0.23734991461E+04  0.00000000000E+00 0.  1.
         21    1    1    2  503  506 -0.13396904193E+03  0.12530337104E+03 -0.22236312521E+04  0.22311845698E+04  0.00000000000E+00 0.  1.
         21    1    1    2  504  502  0.37040390219E+02 -0.11859512408E+02 -0.54786687353E+02  0.67187942767E+02  0.00000000000E+00 0. -1.
         21    1    1    2  505  501  0.55074965081E+02 -0.83256003184E+00 -0.11696181363E+02  0.56309373938E+02  0.00000000000E+00 0. -1.
         21    1    1    2  506  505  0.41853686633E+02 -0.11261129860E+03  0.19508999375E+02  0.12171128425E+03  0.00000000000E+00 0. -1.
<scales pt_clust_3="14000.00000" pt_clust_4="38.89265" pt_clust_5="63.71997" pt_clust_6="179.60056"></scales>
<clustering>
<clus scale="   38.893">  1  4  2 -1</clus>
<clus scale="   63.720">  1  5  2 -1</clus>
<clus scale="  179.601">  1  6  2 -1</clus>
<clus scale="   38.893">  1  3  2 -1</clus>
</clustering>
</event>
<event>
 6    0  0.1555973E+002  0.1180733E+03  0.7546771E-02  0.1246310E+00
         21   -1    0    0  502  501  0.00000000000E+00  0.00000000000E+00  0.39250289316E+02  0.39250289316E+02  0.00000000000E+00 0.  1.
         21   -1    0    0  503  502 -0.00000000000E+00 -0.00000000000E+00 -0.28005902585E+04  0.28005902585E+04  0.00000000000E+00 0. -1.
         21    1    1    2  503  505 -0.30834023396E+02 -0.39168999035E+02 -0.22164626472E+04  0.22170231423E+04  0.00000000000E+00 0. -1.
         21    1    1    2  504  506  0.79672007304E+01 -0.44235870444E+02 -0.17060613429E+03  0.17642772339E+03  0.00000000000E+00 0.  1.
         21    1    1    2  505  504  0.25372004102E+02 -0.37095955076E+02 -0.30310866330E+03  0.30642243757E+03  0.00000000000E+00 0.  1.
         21    1    1    2  506  501 -0.25051814366E+01  0.12050082455E+03 -0.71162524435E+02  0.13996724451E+03  0.00000000000E+00 0.  1.
<scales pt_clust_3="49.84925" pt_clust_4="31.81336" pt_clust_5="31.81336" pt_clust_6="113.70618"></scales>
<clustering>
<clus scale="   31.813">  4  5 -1 -1</clus>
<clus scale="   49.849">  2  3  1 -1</clus>
<clus scale="  113.706">  1  6  2 -1</clus>
<clus scale="  113.706">  1  3  2 -1</clus>
</clustering>
</event>
<event>
 6    0  0.1555973E+002  0.2366203E+03  0.7546771E-02  0.1122065E+00
         21   -1    0    0  503  501  0.00000000000E+00  0.00000000000E+00  0.14205774083E+03  0.14205774083E+03  0.00000000000E+00 0.  1.
         21   -1    0    0  505  502 -0.00000000000E+00 -0.00000000000E+00 -0.50765239896E+03  0.50765239896E+03  0.00000000000E+00 0.  1.
         21    1    1    2  503  506 -0.12710601731E+03  0.46023397349E+02 -0.11618969578E+03  0.17825301722E+03  0.00000000000E+00 0.  1.
         21    1    1    2  504  502 -0.38166606124E+01 -0.38980154416E+02 -0.11200331056E+03  0.11865395448E+03  0.00000000000E+00 0.  1.
         21    1    1    2  505  501  0.22649727717E+03 -0.18588757608E+02 -0.11134541566E+03  0.25306987190E+03  0.00000000000E+00 0.  1.
         21    1    1    2  506  504 -0.95574599244E+02  0.11545514676E+02 -0.26056236126E+02  0.99733296199E+02  0.00000000000E+00 0.  1.
<scales pt_clust_3="54.91165" pt_clust_4="39.16656" pt_clust_5="227.70051" pt_clust_6="54.91165"></scales>
<clustering>
<clus scale="   39.167">  2  4  1 -1</clus>
<clus scale="   54.912">  3  6 -1 -1</clus>
<clus scale="  227.701">  1  5  2 -1</clus>
<clus scale="  227.701">  1  3  2 -1</clus>
</clustering>
</event>
<event>
 6    0  0.1555973E+002  0.1232302E+03  0.7546771E-02  0.1237861E+00
         21   -1    0    0  505  501  0.00000000000E+00  0.00000000000E+00  0.73184927594E+02  0.73184927594E+02  0.00000000000E+00 0. -1.
         21   -1    0    0  504  502 -0.00000000000E+00 -0.00000000000E+00 -0.20519228371E+04  0.20519228371E+04  0.00000000000E+00 0. -1.
         21    1    1    2  503  506 -0.17053189103E+02 -0.77359903920E+02 -0.18305480086E+03  0.19946033718E+03  0.00000000000E+00 0. -1.
         21    1    1    2  504  501 -0.39765291334E+01 -0.40078852777E+02  0.36988666301E+02  0.54683531877E+02  0.00000000000E+00 0. -1.
         21    1    1    2  505  503  0.25596907294E+02 -0.20241072458E+02  0.48699925083E+00  0.32636480288E+02  0.00000000000E+00 0. -1.
         21    1    1    2  506  502 -0.45671890580E+01  0.13767982916E+03 -0.18331587742E+04  0.18383274154E+04  0.00000000000E+00 0. -1.
<scales pt_clust_3="14000.00000" pt_clust_4="58.89423" pt_clust_5="32.63285" pt_clust_6="123.23018"></scales>
<clustering>
<clus scale="   32.633">  1  5  2 -1</clus>
<clus scale="   58.894">  1  4  2 -1</clus>
<clus scale="  123.230">  2  6  1 -1</clus>
<clus scale="   32.633">  1  3  2 -1</clus>
</clustering>
</event>
<event>
 6    0  0.1555973E+002  0.1838349E+03  0.7546771E-02  0.1164142E+00
         21   -1    0    0  506  501  0.00000000000E+00  0.00000000000E+00  0.60038268558E+03  0.60038268558E+03  0.00000000000E+00 0. -1.
         21   -1    0    0  503  502 -0.00000000000E+00 -0.00000000000E+00 -0.25619046494E+03  0.25619046494E+03  0.00000000000E+00 0.  1.
         21    1    1    2  503  505 -0.64647055428E+02  0.70720523018E+02 -0.16255538135E+03  0.18869257049E+03  0.00000000000E+00 0.  1.
         21    1    1    2  504  501 -0.90614802654E+01 -0.14157842637E+03  0.43679443340E+03  0.45925585275E+03  0.00000000000E+00 0. -1.
         21    1    1    2  505  504  0.22132436215E+02 -0.43225801589E+02  0.67810129978E+02  0.83405805454E+02  0.00000000000E+00 0. -1.
         21    1    1    2  506  502  0.51576099479E+02  0.11408370494E+03  0.21430386168E+01  0.12521892183E+03  0.00000000000E+00 0.  1.
<scales pt_clust_3="95.81563" pt_clust_4="43.51781" pt_clust_5="43.51781" pt_clust_6="168.11551"></scales>
<clustering>
<clus scale="   43.518">  4  5 -1 -1</clus>
<clus scale="   95.816">  2  3  1 -1</clus>
<clus scale="  168.116">  2  6  1 -1</clus>
<clus scale="  183.835">  1  3  2 -1</clus>
</clustering>
</event>
<event>
 6    0  0.1555973E+002  0.5615676E+03  0.7546771E-02  0.9988514E-01
         21   -1    0    0  504  501  0.00000000000E+00  0.00000000000E+00  0.81751304218E+03  0.81751304218E+03  0.00000000000E+00 0.  1.
         21   -1    0    0  506  502 -0.00000000000E+00 -0.00000000000E+00 -0.40912190986E+03  0.40912190986E+03  0.00000000000E+00 0.  1.
         21    1    1    2  503  505  0.18792334273E+03 -0.92745963020E+02  0.10101870161E+03  0.23264087018E+03  0.00000000000E+00 0.  1.
         21    1    1    2  504  502 -0.45762701443E+03  0.27639892732E+03  0.40335089127E+01  0.53463550252E+03  0.00000000000E+00 0.  1.
         21    1    1    2  505  501  0.44205023395E+02 -0.53338621881E+02  0.12752379818E+03  0.14512550355E+03  0.00000000000E+00 0.  1.
         21    1    1    2  506  503  0.22549864830E+03 -0.13031434242E+03  0.17581512361E+03  0.31423307579E+03  0.00000000000E+00 0.  1.
<scales pt_clust_3="37.63733" pt_clust_4="534.62029" pt_clust_5="63.54379" pt_clust_6="63.54379"></scales>
<clustering>
<clus scale="   37.637">  3  6 -1 -1</clus>
<clus scale="   63.544">  3  5 -1 -1</clus>
<clus scale="  534.620">  2  4  1 -1</clus>
<clus scale="  561.568">  1  3  2 -1</clus>
</clustering>
</event>
<event>
 6    0  0.1555973E+002  0.1591589E+03  0.7546771E-02  0.1189650E+00
         21   -1    0    0  505  501  0.00000000000E+00  0.00000000000E+00  0.22594400776E+04  0.22594400776E+04  0.00000000000E+00 0. -1.
         21   -1    0    0  503  502 -0.00000000000E+00 -0.00000000000E+00 -0.26623725447E+03  0.26623725447E+03  0.00000000000E+00 0.  1.
         21    1    1    2  503  506  0.37262419523E+02 -0.27773145286E+02 -0.23768576311E+03  0.24218661708E+03  0.00000000000E+00 0.  1.
         21    1    1    2  504  501  0.72788535326E+02  0.26917331178E+02  0.14864340278E+03  0.16768295913E+03  0.00000000000E+00 0. -1.
         21    1    1    2  505  502 -0.15061241437E+03 -0.23195145438E+02  0.20563904764E+04  0.20620290749E+04  0.00000000000E+00 0. -1.
         21    1    1    2  506  504  0.40561459526E+02  0.24050959545E+02  0.25854707080E+02  0.53778681019E+02  0.00000000000E+00 0.  1.
<scales pt_clust_3="46.47403" pt_clust_4="43.74750" pt_clust_5="148.93577" pt_clust_6="43.74750"></scales>
<clustering>
<clus scale="   43.748">  4  6 -1 -1</clus>
<clus scale="   46.474">  2  3  1 -1</clus>
<clus scale="  148.936">  1  5  2 -1</clus>
<clus scale="  148.936">  1  3  2 -1</clus>
</clustering>
</event>
<event>
 6    0  0.1555973E+002  0.1409496E+03  0.7546771E-02  0.1212057E+00
         21   -1    0    0  506  501  0.00000000000E+00  0.00000000000E+00  0.73519821565E+03  0.73519821565E+03  0.00000000000E+00 0. -1.
         21   -1    0    0  504  502 -0.00000000000E+00 -0.00000000000E+00 -0.49092390381E+03  0.49092390381E+03  0.00000000000E+00 0. -1.
         21    1    1    2  503  502  0.56357024204E+02 -0.80218034888E+02  0.22025104465E+03  0.24108415536E+03  0.00000000000E+00 0. -1.
         21    1    1    2  504  505 -0.11297574347E+03  0.87979742716E+02 -0.45543602323E+03  0.47741588264E+03  0.00000000000E+00 0. -1.
         21    1    1    2  505  501  0.20696846008E+01 -0.47728433831E+02  0.40186996633E+03  0.40469958837E+03  0.00000000000E+00 0. -1.
         21    1    1    2  506  503  0.54549034667E+02  0.39966726003E+02  0.77589324087E+02  0.10292249308E+03  0.00000000000E+00 0.  1.
<scales pt_clust_3="140.94965" pt_clust_4="14000.00000" pt_clust_5="47.77329" pt_clust_6="61.36508"></scales>
<clustering>
<clus scale="   47.773">  1  5  2 -1</clus>
<clus scale="   61.365">  1  6  2 -1</clus>
<clus scale="  140.950">  1  3  2 -1</clus>
<clus scale="   47.773">  1  3  2 -1</clus>
</clustering>
</event>
<event>
 6    0  0.1555973E+002  0.1240087E+03  0.7546771E-02  0.1236627E+00
         21   -1    0    0  504  501  0.00000000000E+00  0.00000000000E+00  0.14531497640E+03  0.14531497640E+03  0.00000000000E+00 0. -1.
         21   -1    0    0  503  502 -0.00000000000E+00 -0.00000000000E+00 -0.43609739877E+03  0.43609739877E+03  0.00000000000E+00 0.  1.
         21    1    1    2  503  501  0.12272469587E+03  0.51220217061E+02 -0.22236009300E+02  0.13483064088E+03  0.00000000000E+00 0. -1.
         21    1    1    2  504  506  0.32132343022E+02  0.57478747898E+01  0.61446494855E+02  0.69578712712E+02  0.00000000000E+00 0. -1.
         21    1    1    2  505  502 -0.10657464250E+03 -0.59765025309E+02 -0.28839236708E+03  0.31320946676E+03  0.00000000000E+00 0.  1.
         21    1    1    2  506  505 -0.48282396391E+02  0.27969334584E+01 -0.41600540840E+02  0.63793554817E+02  0.00000000000E+00 0.  1.
<scales pt_clust_3="14000.00000" pt_clust_4="32.64239" pt_clust_5="124.00865" pt_clust_6="43.96173"></scales>
<clustering>
<clus scale="   32.642">  1  4  2 -1</clus>
<clus scale="   43.962">  1  6  2 -1</clus>
<clus scale="  124.009">  2  5  1 -1</clus>
<clus scale="   32.642">  1  3  2 -1</clus>
</clustering>
</event>
<event>
 6    0  0.1555973E+002  0.9240615E+02  0.7546771E-02  0.1297127E+00
         21   -1    0    0  506  501  0.00000000000E+00  0.00000000000E+00  0.29729253770E+02  0.29729253770E+02  0.00000000000E+00 0. -1.
         21   -1    0    0  504  502 -0.00000000000E+00 -0.00000000000E+00 -0.14989882776E+04  0.14989882776E+04  0.00000000000E+00 0. -1.
         21    1    1    2  503  505  0.22539718415E+01 -0.45997475372E+02 -0.13738894250E+03  0.14490193115E+03  0.00000000000E+00 0. -1.
         21    1    1    2  504  501 -0.77965228898E+02  0.14089221711E+03 -0.54928540888E+03  0.57240165458E+03  0.00000000000E+00 0. -1.
         21    1    1    2  505  502  0.54185067775E+02 -0.59403737641E+02 -0.75983965398E+03  0.76408188395E+03  0.00000000000E+00 0. -1.
         21    1    1    2  506  503  0.21526189282E+02 -0.35491004098E+02 -0.22745018431E+02  0.47332061652E+02  0.00000000000E+00 0. -1.
<scales pt_clust_3="54.08483" pt_clust_4="92.40615" pt_clust_5="14000.00000" pt_clust_6="41.50889"></scales>
<clustering>
<clus scale="   41.509">  1  6  2 -1</clus>
<clus scale="   54.085">  1  3  2 -1</clus>
<clus scale="   92.406">  1  4  2 -1</clus>
<clus scale="   41.509">  1  3  2 -1</clus>
</clustering>
</event>
<event>
 6    0  0.1555973E+002  0.1895796E+03  0.7546771E-02  0.1158841E+00
         21   -1    0    0  502  501  0.00000000000E+00  0.00000000000E+00  0.86482021111E+02  0.86482021111E+02  0.00000000000E+00 0.  1.
         21   -1    0    0  504  502 -0.00000000000E+00 -0.00000000000E+00 -0.11145005976E+04  0.11145005976E+04  0.00000000000E+00 0. -1.
         21    1    1    2  503  505  0.49325750313E+02  0.99536185589E+02 -0.32246140287E+02  0.11567322702E+03  0.00000000000E+00 0.  1.
         21    1    1    2  504  503 -0.95475264888E+02 -0.16032292729E+03 -0.92892620178E+03  0.94748237745E+03  0.00000000000E+00 0. -1.
         21    1    1    2  505  506 -0.11312167672E+02  0.52556219505E+02 -0.65960678447E+01  0.54162989736E+02  0.00000000000E+00 0.  1.
         21    1    1    2  506  501  0.57461682248E+02  0.82305221974E+01 -0.60250166532E+02  0.83664024464E+02  0.00000000000E+00 0. -1.
<scales pt_clust_3="36.53691" pt_clust_4="182.15911" pt_clust_5="36.53691" pt_clust_6="58.04814"></scales>
<clustering>
<clus scale="   36.537">  3  5 -1 -1</clus>
<clus scale="   58.048">  1  6  2 -1</clus>
<clus scale="  182.159">  2  4  1 -1</clus>
<clus scale="   58.048">  1  3  2 -1</clus>
</clustering>
</event>
<event>
 6    0  0.1555973E+002  0.8517311E+02  0.7546771E-02  0.1314980E+00
         21   -1    0    0  506  501  0.00000000000E+00  0.00000000000E+00  0.49398442460E+03  0.49398442460E+03  0.00000000000E+00 0. -1.
         21   -1    0    0  505  502 -0.00000000000E+00 -0.00000000000E+00 -0.77394995992E+03  0.77394995992E+03  0.00000000000E+00 0. -1.
         21    1    1    2  503  504 -0.43658473869E+02 -0.77325245701E+02 -0.46497126693E+02  0.10023591549E+03  0.00000000000E+00 0. -1.
         21    1    1    2  504  501  0.51840869686E+02  0.89187965085E+02  0.12298032356E+03  0.16051831319E+03  0.00000000000E+00 0. -1.
         21    1    1    2  505  503 -0.19608543291E+02  0.25228037638E+02 -0.68028074594E+03  0.68103072042E+03  0.00000000000E+00 0. -1.
         21    1    1    2  506  502  0.11426147474E+02 -0.37090757022E+02  0.32383201375E+03  0.32614943543E+03  0.00000000000E+00 0. -1.
<scales pt_clust_3="14000.00000" pt_clust_4="85.17311" pt_clust_5="31.95229" pt_clust_6="38.43995"></scales>
<clustering>
<clus scale="   31.952">  2  5  1 -1</clus>
<clus scale="   38.440">  1  6  2 -1</clus>
<clus scale="   85.173">  1  4  2 -1</clus>
<clus scale="   38.440">  1  3  2 -1</clus>
</clustering>
</event>
<event>
 6    0  0.1555973E+002  0.1343676E+03  0.7546771E-02  0.1221115E+00
         21   -1    0    0  505  501  0.00000000000E+00  0.00000000000E+00  0.54068606245E+03  0.54068606245E+03  0.00000000000E+00 0. -1.
         21   -1    0    0  501  502 -0.00000000000E+00 -0.00000000000E+00 -0.37050593991E+03  0.37050593991E+03  0.00000000000E+00 0. -1.
         21    1    1    2  503  504 -0.41157346658E+02 -0.36380704562E+02  0.96969651498E+02  0.11144772838E+03  0.00000000000E+00 0. -1.
         21    1    1    2  504  506 -0.33160511891E+02 -0.21534736568E+02  0.15849581603E+03  0.16335326176E+03  0.00000000000E+00 0.  1.
         21    1    1    2  505  503  0.10442739882E+02 -0.56519265523E+02  0.26041533162E+03  0.26668262623E+03  0.00000000000E+00 0. -1.
         21    1    1    2  506  502  0.63875118666E+02  0.11443470665E+03 -0.34570067660E+03  0.36970838599E+03  0.00000000000E+00 0. -1.
<scales pt_clust_3="31.46703" pt_clust_4="31.46703" pt_clust_5="57.47589" pt_clust_6="129.14731"></scales>
<clustering>
<clus scale="   31.467">  3  4 -1 -1</clus>
<clus scale="   57.476">  1  5  2 -1</clus>
<clus scale="  129.147">  2  6  1 -1</clus>
<clus scale="   57.476">  1  3  2 -1</clus>
</clustering>
</event>
<event>
 6    0  0.1555973E+002  0.1464185E+03  0.7546771E-02  0.1204944E+00
         21   -1    0    0  506  501  0.00000000000E+00  0.00000000000E+00  0.52129853030E+03  0.52129853030E+03  0.00000000000E+00 0. -1.
         21   -1    0    0  505  502 -0.00000000000E+00 -0.00000000000E+00 -0.97595838271E+03  0.97595838271E+03  0.00000000000E+00 0. -1.
         21    1    1    2  503  504  0.92346430881E+02 -0.22140597539E+02  0.44525080352E+02  0.10488351699E+03  0.00000000000E+00 0. -1.
         21    1    1    2  504  502  0.13529368285E+03  0.54796971217E+02 -0.89773618362E+03  0.90952588971E+03  0.00000000000E+00 0. -1.
         21    1    1    2  505  501 -0.19099650535E+03 -0.13452019026E+01  0.38949341813E+03  0.43380479180E+03  0.00000000000E+00 0. -1.
         21    1    1    2  506  503 -0.36643608379E+02 -0.31311171775E+02  0.90578327347E+01  0.49042714513E+02  0.00000000000E+00 0.  1.
<scales pt_clust_3="90.85647" pt_clust_4="14000.00000" pt_clust_5="146.41846" pt_clust_6="48.19900"></scales>
<clustering>
<clus scale="   48.199">  1  6  2 -1</clus>
<clus scale="   90.856">  1  3  2 -1</clus>
<clus scale="  146.418">  1  5  2 -1</clus>
<clus scale="   48.199">  1  3  2 -1</clus>
</clustering>
</event>
<event>
 6    0  0.1555973E+002  0.1149540E+03  0.7546771E-02  0.1251661E+00
         21   -1    0    0  503  501  0.00000000000E+00  0.00000000000E+00  0.19288083713E+04  0.19288083713E+04  0.00000000000E+00 0.  1.
         21   -1    0    0  506  502 -0.00000000000E+00 -0.00000000000E+00 -0.11917700413E+03  0.11917700413E+03  0.00000000000E+00 0.  1.
         21    1    1    2  503  505 -0.48098757237E+02 -0.12404839344E+03  0.89589668570E+03  0.90572201354E+03  0.00000000000E+00 0.  1.
         21    1    1    2  504  501 -0.21975824757E+02  0.50887930041E+02  0.35967416872E+03  0.36392035659E+03  0.00000000000E+00 0.  1.
         21    1    1    2  505  502  0.92899532279E+02  0.23838302497E+02 -0.90279228848E+02  0.13171532532E+03  0.00000000000E+00 0.  1.
         21    1    1    2  506  504 -0.22824950284E+02  0.49322160897E+02  0.64433974155E+03  0.64662767993E+03  0.00000000000E+00 0.  1.
<scales pt_clust_3="110.00088" pt_clust_4="33.05246" pt_clust_5="95.90927" pt_clust_6="33.05246"></scales>
<clustering>
<clus scale="   33.052">  4  6 -1 -1</clus>
<clus scale="   95.909">  2  5  1 -1</clus>
<clus scale="  110.001">  2  3  1 -1</clus>
<clus scale="  114.954">  1  3  2 -1</clus>
</clustering>
</event>
<event>
 6    0  0.1555973E+002  0.1599495E+03  0.7546771E-02  0.1188754E+00
         21   -1    0    0  506  501  0.00000000000E+00  0.00000000000E+00  0.18887746026E+03  0.18887746026E+03  0.00000000000E+00 0.  1.
         21   -1    0    0  503  502 -0.00000000000E+00 -0.00000000000E+00 -0.64191262892E+03  0.64191262892E+03  0.00000000000E+00 0.  1.
         21    1    1    2  503  505 -0.97027251156E+02  0.13842618481E+02  0.12185311873E+03  0.15637802946E+03  0.00000000000E+00 0.  1.
         21    1    1    2  504  502  0.14676425505E+03  0.94890935297E+01 -0.57683380505E+03  0.59528734919E+03  0.00000000000E+00 0.  1.
         21    1    1    2  505  501 -0.41029702218E+02  0.11780388877E+02  0.41072808384E+01  0.42884540129E+02  0.00000000000E+00 0.  1.
         21    1    1    2  506  504 -0.87073016742E+01 -0.35112100887E+02 -0.21617631761E+01  0.36240170408E+02  0.00000000000E+00 0.  1.
<scales pt_clust_3="40.97532" pt_clust_4="146.49419" pt_clust_5="40.97532" pt_clust_6="36.17564"></scales>
<clustering>
<clus scale="   36.176">  1  6  2 -1</clus>
<clus scale="   40.975">  3  5 -1 -1</clus>
<clus scale="  146.494">  2  4  1 -1</clus>
<clus scale="   36.176">  1  3  2 -1</clus>
</clustering>
</event>
<event>
 6    0  0.1555973E+002  0.8129221E+02  0.7546771E-02  0.1325424E+00
         21   -1    0    0  506  501  0.00000000000E+00  0.00000000000E+00  0.96209528548E+03  0.96209528548E+03  0.00000000000E+00 0. -1.
         21   -1    0    0  505  502 -0.00000000000E+00 -0.00000000000E+00 -0.41997770623E+03  0.41997770623E+03  0.00000000000E+00 0. -1.
         21    1    1    2  503  502 -0.13362953535E+02  0.40851418400E+02 -0.36481915721E+03  0.36734238032E+03  0.00000000000E+00 0. -1.
         21    1    1    2  504  503  0.11570240039E+03 -0.12596192645E+03  0.22712595008E+03  0.28432314287E+03  0.00000000000E+00 0. -1.
         21    1    1    2  505  501 -0.45718771546E+02  0.36235123420E+02  0.13457053293E+02  0.59868877760E+02  0.00000000000E+00 0. -1.
         21    1    1    2  506  504 -0.56620675306E+02  0.48875384631E+02  0.66635373309E+03  0.67053859076E+03  0.00000000000E+00 0. -1.
<scales pt_clust_3="42.98147" pt_clust_4="14000.00000" pt_clust_5="74.47443" pt_clust_6="81.29221"></scales>
<clustering>
<clus scale="   42.981">  2  3  1 -1</clus>
<clus scale="   74.474">  2  5  1 -1</clus>
<clus scale="   81.292">  1  6  2 -1</clus>
<clus scale="   81.292">  1  3  2 -1</clus>
</clustering>
</event>
<event>
 6    0  0.1555973E+002  0.1427507E+03  0.7546771E-02  0.1209675E+00
         21   -1    0    0  504  501  0.00000000000E+00  0.00000000000E+00  0.86185421374E+03  0.86185421374E+03  0.00000000000E+00 0.  1.
         21   -1    0    0  505  502 -0.00000000000E+00 -0.00000000000E+00 -0.81006551498E+03  0.81006551498E+03  0.00000000000E+00 0. -1.
         21    1    1    2  503  501 -0.12044926362E+02 -0.55069590456E+02  0.16244661487E+03  0.17194953541E+03  0.00000000000E+00 0. -1.
         21    1    1    2  504  506  0.27656991255E+02  0.11003849005E+03  0.41882187915E+03  0.43391836203E+03  0.00000000000E+00 0.  1.
         21    1    1    2  505  503  0.20693628726E+02 -0.12345405908E+03 -0.78711618558E+03  0.79700754110E+03  0.00000000000E+00 0. -1.
         21    1    1    2  506  502 -0.36305693619E+02  0.68485159487E+02  0.25763639032E+03  0.26904429017E+03  0.00000000000E+00 0.  1.
<scales pt_clust_3="56.37145" pt_clust_4="56.15142" pt_clust_5="125.54899" pt_clust_6="56.15142"></scales>
<clustering>
<clus scale="   56.151">  4  6 -1 -1</clus>
<clus scale="   56.371">  1  3  2 -1</clus>
<clus scale="  125.549">  2  5  1 -1</clus>
<clus scale="   56.371">  1  3  2 -1</clus>
</clustering>
</event>
<event>
 6    0  0.1555973E+002  0.1908687E+03  0.7546771E-02  0.1157680E+00
         21   -1    0    0  503  501  0.00000000000E+00  0.00000000000E+00  0.29427403591E+03  0.29427403591E+03  0.00000000000E+00 0. -1.
         21   -1    0    0  504  502 -0.00000000000E+00 -0.00000000000E+00 -0.27305326188E+03  0.27305326188E+03  0.00000000000E+00 0. -1.
         21    1    1    2  503  502  0.12376900234E+03  0.15183936108E+03 -0.15068181808E+03  0.24714159467E+03  0.00000000000E+00 0. -1.
         21    1    1    2  504  506 -0.31486608396E+02  0.10041533950E+01 -0.82876479487E+01  0.32574529020E+02  0.00000000000E+00 0.  1.
         21    1    1    2  505  501  0.15284464566E+02 -0.82064645811E+02  0.11819253328E+03  0.14469863812E+03  0.00000000000E+00 0. -1.
         21    1    1    2  506  505 -0.10756685851E+03 -0.70778868667E+02  0.61997706773E+02  0.14291253600E+03  0.00000000000E+00 0. -1.
<scales pt_clust_3="180.89854" pt_clust_4="30.11348" pt_clust_5="83.47587" pt_clust_6="30.11348"></scales>
<clustering>
<clus scale="   30.113">  4  6 -1 -1</clus>
<clus scale="   83.476">  1  5  2 -1</clus>
<clus scale="  180.899">  2  3  1 -1</clus>
<clus scale="   83.476">  1  3  2 -1</clus>
</clustering>
</event>
<event>
 6    0  0.1555973E+002  0.3762291E+03  0.7546771E-02  0.1052336E+00
         21   -1    0    0  504  501  0.00000000000E+00  0.00000000000E+00  0.43634975214E+03  0.43634975214E+03  0.00000000000E+00 0. -1.
         21   -1    0    0  505  502 -0.00000000000E+00 -0.00000000000E+00 -0.12633602736E+04  0.12633602736E+04  0.00000000000E+00 0. -1.
         21    1    1    2  503  502 -0.72481318954E+02 -0.11816004078E+03 -0.78272420527E+03  0.79490409381E+03  0.00000000000E+00 0. -1.
         21    1    1    2  504  506 -0.26683686582E+02 -0.29684957381E+02  0.20701975286E+02  0.44964292556E+02  0.00000000000E+00 0. -1.
         21    1    1    2  505  501 -0.37917832469E+02  0.42605551932E+03  0.18053024103E+03  0.46427603372E+03  0.00000000000E+00 0. -1.
         21    1    1    2  506  503  0.13708283801E+03 -0.27821052116E+03 -0.24551853247E+03  0.39556560562E+03  0.00000000000E+00 0. -1.
<scales pt_clust_3="139.21190" pt_clust_4="39.91511" pt_clust_5="14000.00000" pt_clust_6="376.22907"></scales>
<clustering>
<clus scale="   39.915">  1  4  2 -1</clus>
<clus scale="  139.212">  2  3  1 -1</clus>
<clus scale="  376.229">  2  6  1 -1</clus>
<clus scale="   39.915">  1  3  2 -1</clus>
</clustering>
</event>
<event>
 6    0  0.1555973E+002  0.1648272E+03  0.7546771E-02  0.1183352E+00
         21   -1    0    0  506  501  0.00000000000E+00  0.00000000000E+00  0.98705896048E+02  0.98705896048E+02  0.00000000000E+00 0. -1.
         21   -1    0    0  504  502 -0.00000000000E+00 -0.00000000000E+00 -0.18145443466E+04  0.18145443466E+04  0.00000000000E+00 0.  1.
         21    1    1    2  503  502  0.18839865352E+02  0.28297785691E+02 -0.14557557568E+04  0.14561526461E+04  0.00000000000E+00 0.  1.
         21    1    1    2  504  501  0.14129968727E+03  0.45227943315E+01 -0.24877620396E+03  0.28613922651E+03  0.00000000000E+00 0.  1.
         21    1    1    2  505  503 -0.45670605091E+02  0.41508045540E+01 -0.20672396835E+02  0.50302895928E+02  0.00000000000E+00 0. -1.
         21    1    1    2  506  505 -0.11446894753E+03 -0.36971384577E+02  0.93659070353E+01  0.12065547415E+03  0.00000000000E+00 0. -1.
<scales pt_clust_3="33.99566" pt_clust_4="157.45143" pt_clust_5="30.10332" pt_clust_6="30.10332"></scales>
<clustering>
<clus scale="   30.103">  5  6 -1 -1</clus>
<clus scale="   33.996">  2  3  1 -1</clus>
<clus scale="  157.451">  2  4  1 -1</clus>
<clus scale="  164.827">  1  3  2 -1</clus>
</clustering>
</event>
<event>
 6    0  0.1555973E+002  0.1100179E+03  0.7546771E-02  0.1260537E+00
         21   -1    0    0  503  501  0.00000000000E+00  0.00000000000E+00  0.17972806690E+03  0.17972806690E+03  0.00000000000E+00 0. -1.
         21   -1    0    0  505  502 -0.00000000000E+00 -0.00000000000E+00 -0.37922393772E+03  0.37922393772E+03  0.00000000000E+00 0. -1.
         21    1    1    2  503  502 -0.12493166198E+03  0.40186661993E+01 -0.68122798264E+00  0.12499813564E+03  0.00000000000E+00 0.  1.
         21    1    1    2  504  506  0.47485730609E+02 -0.15318463121E+02  0.20514738840E+02  0.53948164320E+02  0.00000000000E+00 0.  1.
         21    1    1    2  505  504  0.35089161022E+02  0.97623763201E+01 -0.29286959504E+03  0.29512565614E+03  0.00000000000E+00 0. -1.
         21    1    1    2  506  501  0.42356770345E+02  0.15374206016E+01  0.73540213363E+02  0.84880048526E+02  0.00000000000E+00 0. -1.
<scales pt_clust_3="99.69249" pt_clust_4="41.59635" pt_clust_5="36.42188" pt_clust_6="41.59635"></scales>
<clustering>
<clus scale="   36.422">  2  5  1 -1</clus>
<clus scale="   41.596">  4  6 -1 -1</clus>
<clus scale="   99.692">  2  3  1 -1</clus>
<clus scale="  110.018">  1  3  2 -1</clus>
</clustering>
</event>
<event>
 6    0  0.1555973E+002  0.1510595E+03  0.7546771E-02  0.1199177E+00
         21   -1    0    0  505  501  0.00000000000E+00  0.00000000000E+00  0.21700271566E+03  0.21700271566E+03  0.00000000000E+00 0.  1.
         21   -1    0    0  504  502 -0.00000000000E+00 -0.00000000000E+00 -0.71684430066E+03  0.71684430066E+03  0.00000000000E+00 0.  1.
         21    1    1    2  503  501 -0.74148105781E+02  0.38662494404E+02  0.13060211515E+03  0.15507947171E+03  0.00000000000E+00 0.  1.
         21    1    1    2  504  506 -0.16547690121E+02  0.26545441014E+02 -0.30408303472E+03  0.30568771400E+03  0.00000000000E+00 0.  1.
         21    1    1    2  505  502  0.12615611865E+03 -0.11242203131E+03 -0.36520316413E+03  0.40240207565E+03  0.00000000000E+00 0.  1.
         21    1    1    2  506  503 -0.35460322746E+02  0.47214095893E+02  0.38842498706E+02  0.70677754958E+02  0.00000000000E+00 0.  1.
<scales pt_clust_3="45.22647" pt_clust_4="31.28077" pt_clust_5="141.25478" pt_clust_6="45.22647"></scales>
<clustering>
<clus scale="   31.281">  2  4  1 -1</clus>
<clus scale="   45.226">  3  6 -1 -1</clus>
<clus scale="  141.255">  2  5  1 -1</clus>
<clus scale="  151.059">  1  3  2 -1</clus>
</clustering>
</event>
<event>
 6    0  0.1555973E+002  0.1519517E+03  0.7546771E-02  0.1198095E+00
         21   -1    0    0  506  501  0.00000000000E+00  0.00000000000E+00  0.17269790931E+03  0.17269790931E+03  0.00000000000E+00 0.  1.
         21   -1    0    0  504  502 -0.00000000000E+00 -0.00000000000E+00 -0.32496010059E+03  0.32496010059E+03  0.00000000000E+00 0. -1.
         21    1    1    2  503  501 -0.38029647820E+02 -0.37360855755E+02  0.54434316071E+02  0.76191747730E+02  0.00000000000E+00 0.  1.
         21    1    1    2  504  505  0.96793710170E+02  0.10693696925E+03 -0.24154402797E+03  0.28133264149E+03  0.00000000000E+00 0. -1.
         21    1    1    2  505  503 -0.74245134331E+02 -0.11433862585E+02  0.13713188468E+02  0.76361801468E+02  0.00000000000E+00 0.  1.
         21    1    1    2  506  502  0.15481071981E+02 -0.58142250909E+02  0.21134332150E+02  0.63771819214E+02  0.00000000000E+00 0.  1.
<scales pt_clust_3="50.83906" pt_clust_4="139.45380" pt_clust_5="50.83906" pt_clust_6="60.16797"></scales>
<clustering>
<clus scale="   50.839">  3  5 -1 -1</clus>
<clus scale="   60.168">  1  6  2 -1</clus>
<clus scale="  139.454">  2  4  1 -1</clus>
<clus scale="   60.168">  1  3  2 -1</clus>
</clustering>
</event>
<event>
 6    0  0.1555973E+002  0.2722334E+03  0.7546771E-02  0.1100008E+00
         21   -1    0    0  504  501  0.00000000000E+00  0.00000000000E+00  0.91822388503E+02  0.91822388503E+02  0.00000000000E+00 0.  1.
         21   -1    0    0  501  502 -0.00000000000E+00 -0.00000000000E+00 -0.12696926985E+04  0.12696926985E+04  0.00000000000E+00 0.  1.
         21    1    1    2  503  506 -0.13206841306E+03 -0.17234783064E+03 -0.23415274290E+03  0.31933265956E+03  0.00000000000E+00 0.  1.
         21    1    1    2  504  503  0.56281285652E+02 -0.59996931916E+02 -0.53531172433E+02  0.98146835792E+02  0.00000000000E+00 0. -1.
         21    1    1    2  505  502  0.11585612583E+03  0.24362134244E+03 -0.80912924964E+03  0.85291508546E+03  0.00000000000E+00 0.  1.
         21    1    1    2  506  505 -0.40068998429E+02 -0.11276579889E+02 -0.81057145019E+02  0.91120506186E+02  0.00000000000E+00 0.  1.
<scales pt_clust_3="33.24533" pt_clust_4="82.26308" pt_clust_5="261.43013" pt_clust_6="33.24533"></scales>
<clustering>
<clus scale="   33.245">  3  6 -1 -1</clus>
<clus scale="   82.263">  1  4  2 -1</clus>
<clus scale="  261.430">  2  5  1 -1</clus>
<clus scale="   82.263">  1  3  2 -1</clus>
</clustering>
</event>
<event>
 6    0  0.1555973E+002  0.1041782E+03  0.7546771E-02  0.1271747E+00
         21   -1    0    0  502  501  0.00000000000E+00  0.00000000000E+00  0.10565265565E+04  0.10565265565E+04  0.00000000000E+00 0. -1.
         21   -1    0    0  506  502 -0.00000000000E+00 -0.00000000000E+00 -0.52508572879E+03  0.52508572879E+03  0.00000000000E+00 0. -1.
         21    1    1    2  503  501 -0.28507771554E+02  0.32016480391E+02  0.33733268198E+03  0.34004571220E+03  0.00000000000E+00 0. -1.
         21    1    1    2  504  503  0.72057774540E+02 -0.89363450815E+01  0.51090259342E+03  0.51603647264E+03  0.00000000000E+00 0. -1.
         21    1    1    2  505  504  0.51823909546E+02 -0.89481786254E+01  0.19641948563E+03  0.20333814654E+03  0.00000000000E+00 0. -1.
         21    1    1    2  506  505 -0.95373912531E+02 -0.14131956684E+02 -0.51321393332E+03  0.52219195392E+03  0.00000000000E+00 0. -1.
<scales pt_clust_3="42.86896" pt_clust_4="33.27601" pt_clust_5="33.27601" pt_clust_6="96.56249"></scales>
<clustering>
<clus scale="   33.276">  4  5 -1 -1</clus>
<clus scale="   42.869">  1  3  2 -1</clus>
<clus scale="   96.562">  2  6  1 -1</clus>
<clus scale="   42.869">  1  3  2 -1</clus>
</clustering>
</event>
<event>
 6    0  0.1555973E+002  0.1087829E+03  0.7546771E-02  0.1262841E+00
         21   -1    0    0  506  501  0.00000000000E+00  0.00000000000E+00  0.34773364230E+02  0.34773364230E+02  0.00000000000E+00 0.  1.
         21   -1    0    0  503  502 -0.00000000000E+00 -0.00000000000E+00 -0.25833182105E+04  0.25833182105E+04  0.00000000000E+00 0. -1.
         21    1    1    2  503  505  0.43060912537E+02  0.15991150700E+02 -0.20030342093E+04  0.20035608308E+04  0.00000000000E+00 0. -1.
         21    1    1    2  504  502 -0.35008952862E+02  0.10848403694E+03 -0.31741536352E+03  0.33726388192E+03  0.00000000000E+00 0.  1.
         21    1    1    2  505  501 -0.26248902387E+02 -0.33067531277E+02 -0.14950938269E+03  0.15535611354E+03  0.00000000000E+00 0.  1.
         21    1    1    2  506  504  0.18196942712E+02 -0.91407656364E+02 -0.78585890765E+02  0.12191074847E+03  0.00000000000E+00 0.  1.
<scales pt_clust_3="45.63605" pt_clust_4="14000.00000" pt_clust_5="42.21927" pt_clust_6="108.78287"></scales>
<clustering>
<clus scale="   42.219">  1  5  2 -1</clus>
<clus scale="   45.636">  2  3  1 -1</clus>
<clus scale="  108.783">  1  6  2 -1</clus>
<clus scale="   42.219">  1  3  2 -1</clus>
</clustering>
</event>
<event>
 6    0  0.1555973E+002  0.1054597E+03  0.7546771E-02  0.1269217E+00
         21   -1    0    0  502  501  0.00000000000E+00  0.00000000000E+00  0.12199661735E+02  0.12199661735E+02  0.00000000000E+00 0.  1.
         21   -1    0    0  505  502 -0.00000000000E+00 -0.00000000000E+00 -0.17624622585E+04  0.17624622585E+04  0.00000000000E+00 0.  1.
         21    1    1    2  503  506  0.20379411032E+02 -0.53936599565E+02 -0.55531675021E+03  0.55830204212E+03  0.00000000000E+00 0.  1.
         21    1    1    2  504  501 -0.56306399813E+02 -0.13758545123E+02 -0.20474298294E+03  0.21278956104E+03  0.00000000000E+00 0.  1.
         21    1    1    2  505  503  0.50546720338E+02 -0.20538938985E+02 -0.63276862925E+03  0.63511649098E+03  0.00000000000E+00 0.  1.
         21    1    1    2  506  504 -0.14619731558E+02  0.88234083674E+02 -0.35743423435E+03  0.36845382609E+03  0.00000000000E+00 0.  1.
<scales pt_clust_3="44.82956" pt_clust_4="57.96299" pt_clust_5="44.82956" pt_clust_6="94.85751"></scales>
<clustering>
<clus scale="   44.830">  3  5 -1 -1</clus>
<clus scale="   57.963">  1  4  2 -1</clus>
<clus scale="   94.858">  1  6  2 -1</clus>
<clus scale="   57.963">  1  3  2 -1</clus>
</clustering>
</event>
<event>
 6    0  0.1555973E+002  0.1517598E+03  0.7546771E-02  0.1198327E+00
         21   -1    0    0  504  501  0.00000000000E+00  0.00000000000E+00  0.35628354754E+03  0.35628354754E+03  0.00000000000E+00 0.  1.
         21   -1    0    0  506  502 -0.00000000000E+00 -0.00000000000E+00 -0.32648626138E+03  0.32648626138E+03  0.00000000000E+00 0.  1.
         21    1    1    2  503  502  0.29458293188E+02 -0.21847653782E+02 -0.41431263659E+02  0.55332274684E+02  0.00000000000E+00 0.  1.
         21    1    1    2  504  505 -0.56956101294E+02  0.82851129067E+02  0.32908677051E+02  0.10578888452E+03  0.00000000000E+00 0.  1.
         21    1    1    2  505  503  0.11633107716E+03 -0.19871308605E+03  0.18986384598E+03  0.29844277524E+03  0.00000000000E+00 0.  1.
         21    1    1    2  506  501 -0.88833269051E+02  0.13770961077E+03 -0.15154397321E+03  0.22320587448E+03  0.00000000000E+00 0.  1.
<scales pt_clust_3="36.67576" pt_clust_4="96.00704" pt_clust_5="14000.00000" pt_clust_6="151.75980"></scales>
<clustering>
<clus scale="   36.676">  2  3  1 -1</clus>
<clus scale="   96.007">  1  4  2 -1</clus>
<clus scale="  151.760">  2  6  1 -1</clus>
<clus scale="   96.007">  1  3  2 -1</clus>
</clustering>
</event>
<event>
 6    0  0.1555973E+002  0.1656855E+03  0.7546771E-02  0.1182423E+00
         21   -1    0    0  506  501  0.00000000000E+00  0.00000000000E+00  0.17075562002E+03  0.17075562002E+03  0.00000000000E+00 0. -1.
         21   -1    0    0  505  502 -0.00000000000E+00 -0.00000000000E+00 -0.26772198800E+03  0.26772198800E+03  0.00000000000E+00 0. -1.
         21    1    1    2  503  502  0.10901684477E+02  0.16296336156E+03 -0.16507371885E+03  0.23221807981E+03  0.00000000000E+00 0. -1.
         21    1    1    2  504  501  0.50489858606E+01 -0.98744639033E+02  0.50019393499E+02  0.11080584697E+03  0.00000000000E+00 0. -1.
         21    1    1    2  505  504  0.18386774204E+02 -0.47604377514E+02 -0.43181395631E+01  0.51214222179E+02  0.00000000000E+00 0. -1.
         21    1    1    2  506  503 -0.34337444542E+02 -0.16614345015E+02  0.22406096938E+02  0.44239459060E+02  0.00000000000E+00 0. -1.
<scales pt_clust_3="158.92468" pt_clust_4="33.65588" pt_clust_5="33.65588" pt_clust_6="38.14573"></scales>
<clustering>
<clus scale="   33.656">  4  5 -1 -1</clus>
<clus scale="   38.146">  1  6  2 -1</clus>
<clus scale="  158.925">  2  3  1 -1</clus>
<clus scale="   38.146">  1  3  2 -1</clus>
</clustering>
</event>
<event>
 6    0  0.1555973E+002  0.1180941E+03  0.7546771E-02  0.1246275E+00
         21   -1    0    0  506  501  0.00000000000E+00  0.00000000000E+00  0.32385853349E+03  0.32385853349E+03  0.00000000000E+00 0.  1.
         21   -1    0    0  505  502 -0.00000000000E+00 -0.00000000000E+00 -0.44447970930E+03  0.44447970930E+03  0.00000000000E+00 0. -1.
         21    1    1    2  503  502 -0.28018238984E+02  0.11436436308E+02 -0.22215139544E+03  0.22420315851E+03  0.00000000000E+00 0. -1.
         21    1    1    2  504  503  0.90653316378E+02 -0.11205123204E+03 -0.17382315824E+03  0.22580520966E+03  0.00000000000E+00 0. -1.
         21    1    1    2  505  501 -0.43260303836E+02  0.65747205742E+02  0.26594527903E+03  0.27734642667E+03  0.00000000000E+00 0.  1.
         21    1    1    2  506  504 -0.19374773558E+02  0.34867589986E+02  0.94080988433E+01  0.40983447948E+02  0.00000000000E+00 0. -1.
<scales pt_clust_3="30.26242" pt_clust_4="118.09413" pt_clust_5="14000.00000" pt_clust_6="41.59495"></scales>
<clustering>
<clus scale="   30.262">  2  3  1 -1</clus>
<clus scale="   41.595">  1  6  2 -1</clus>
<clus scale="  118.094">  2  4  1 -1</clus>
<clus scale="   41.595">  1  3  2 -1</clus>
</clustering>
</event>
<event>
 6    0  0.1555973E+002  0.1996195E+03  0.7546771E-02  0.1150060E+00
         21   -1    0    0  505  501  0.00000000000E+00  0.00000000000E+00  0.59162996696E+03  0.59162996696E+03  0.00000000000E+00 0.  1.
         21   -1    0    0  503  502 -0.00000000000E+00 -0.00000000000E+00 -0.12080927141E+03  0.12080927141E+03  0.00000000000E+00 0.  1.
         21    1    1    2  503  506  0.13122814791E+03  0.94456096824E+02  0.95608570688E+02  0.18783977167E+03  0.00000000000E+00 0.  1.
         21    1    1    2  504  501 -0.64184601353E+02  0.82874006392E+01  0.13994624158E+02  0.66213243128E+02  0.00000000000E+00 0.  1.
         21    1    1    2  505  502  0.75367491930E+02 -0.23482016218E+02  0.24715377131E+03  0.25945452510E+03  0.00000000000E+00 0.  1.
         21    1    1    2  506  504 -0.14241103849E+03 -0.79261481246E+02  0.11406372940E+03  0.19893169847E+03  0.00000000000E+00 0.  1.
<scales pt_clust_3="183.47788" pt_clust_4="49.55284" pt_clust_5="78.94089" pt_clust_6="49.55284"></scales>
<clustering>
<clus scale="   49.553">  4  6 -1 -1</clus>
<clus scale="   78.941">  1  5  2 -1</clus>
<clus scale="  183.478">  2  3  1 -1</clus>
<clus scale="   78.941">  1  3  2 -1</clus>
</clustering>
</event>
<event>
 6    0  0.1555973E+002  0.1083196E+03  0.7546771E-02  0.1263714E+00
         21   -1    0    0  504  501  0.00000000000E+00  0.00000000000E+00  0.20808534808E+04  0.20808534808E+04  0.00000000000E+00 0. -1.
         21   -1    0    0  505  502 -0.00000000000E+00 -0.00000000000E+00 -0.17978424004E+03  0.17978424004E+03  0.00000000000E+00 0. -1.
         21    1    1    2  503  506 -0.46422735240E+02 -0.24456795272E+02  0.10861396209E+03  0.12062420132E+03  0.00000000000E+00 0.  1.
         21    1    1    2  504  503  0.21769219924E+02 -0.28809034515E+02  0.86652286522E+03  0.86727489031E+03  0.00000000000E+00 0. -1.
         21    1    1    2  505  501  0.13089072826E+03  0.33340582033E+02  0.10778565954E+04  0.10862867105E+04  0.00000000000E+00 0. -1.
         21    1    1    2  506  502 -0.10623721294E+03  0.19925247754E+02 -0.15192418198E+03  0.18645191869E+03  0.00000000000E+00 0. -1.
<scales pt_clust_3="52.02925" pt_clust_4="36.10899" pt_clust_5="14000.00000" pt_clust_6="108.31961"></scales>
<clustering>
<clus scale="   36.109">  1  4  2 -1</clus>
<clus scale="   52.029">  1  3  2 -1</clus>
<clus scale="  108.320">  2  6  1 -1</clus>
<clus scale="   36.109">  1  3  2 -1</clus>
</clustering>
</event>
<event>
 6    0  0.1555973E+002  0.1157437E+03  0.7546771E-02  0.1250288E+00
         21   -1    0    0  505  501  0.00000000000E+00  0.00000000000E+00  0.57804193643E+03  0.57804193643E+03  0.00000000000E+00 0.  1.
         21   -1    0    0  506  502 -0.00000000000E+00 -0.00000000000E+00 -0.17435886955E+03  0.17435886955E+03  0.00000000000E+00 0.  1.
         21    1    1    2  503  501  0.13709575812E+03  0.65446907598E+02  0.26302447427E+03  0.30374400187E+03  0.00000000000E+00 0.  1.
         21    1    1    2  504  502 -0.32806805738E+01 -0.12287102109E+03  0.12102077179E+03  0.17249370392E+03  0.00000000000E+00 0.  1.
         21    1    1    2  505  504 -0.49970239531E+02 -0.20367827970E+02  0.11514083706E+03  0.12715850586E+03  0.00000000000E+00 0.  1.
         21    1    1    2  506  503 -0.83844838015E+02  0.77791941462E+02 -0.95503016238E+02  0.14900459432E+03  0.00000000000E+00 0.  1.
<scales pt_clust_3="14000.00000" pt_clust_4="109.89019" pt_clust_5="53.96178" pt_clust_6="115.74369"></scales>
<clustering>
<clus scale="   53.962">  1  5  2 -1</clus>
<clus scale="  115.744">  2  6  1 -1</clus>
<clus scale="  109.890">  2  4  1 -1</clus>
<clus scale="   53.962">  1  3  2 -1</clus>
</clustering>
</event>
<event>
 6    0  0.1555973E+002  0.3109397E+03  0.7546771E-02  0.1079896E+00
         21   -1    0    0  502  501  0.00000000000E+00  0.00000000000E+00  0.26169082729E+03  0.26169082729E+03  0.00000000000E+00 0.  1.
         21   -1    0    0  506  502 -0.00000000000E+00 -0.00000000000E+00 -0.33395013026E+03  0.33395013026E+03  0.00000000000E+00 0.  1.
         21    1    1    2  503  501 -0.91210041727E+02 -0.20858261301E+02  0.30797519522E+02  0.98502923739E+02  0.00000000000E+00 0.  1.
         21    1    1    2  504  505 -0.29822697121E+02 -0.12291529895E+03 -0.29137160116E+02  0.12979421435E+03  0.00000000000E+00 0.  1.
         21    1    1    2  505  503 -0.54093509795E+02 -0.61011224034E+02  0.16367405464E+02  0.83164711397E+02  0.00000000000E+00 0.  1.
         21    1    1    2  506  504  0.17512624864E+03  0.20478478429E+03 -0.90287067838E+02  0.28417910806E+03  0.00000000000E+00 0.  1.
<scales pt_clust_3="120.27429" pt_clust_4="120.27429" pt_clust_5="50.81368" pt_clust_6="269.45503"></scales>
<clustering>
<clus scale="   50.814">  3  5 -1 -1</clus>
<clus scale="  120.274">  3  4 -1 -1</clus>
<clus scale="  269.455">  2  6  1 -1</clus>
<clus scale="  310.940">  1  3  2 -1</clus>
</clustering>
</event>
<event>
 6    0  0.1555973E+002  0.1204736E+03  0.7546771E-02  0.1242318E+00
         21   -1    0    0  504  501  0.00000000000E+00  0.00000000000E+00  0.10702283964E+04  0.10702283964E+04  0.00000000000E+00 0.  1.
         21   -1    0    0  505  502 -0.00000000000E+00 -0.00000000000E+00 -0.12966781888E+03  0.12966781888E+03  0.00000000000E+00 0.  1.
         21    1    1    2  503  506  0.26911425169E+02  0.21236137126E+02  0.10532797080E+03  0.11076632953E+03  0.00000000000E+00 0. -1.
         21    1    1    2  504  502 -0.83841515040E+02 -0.13710236372E+02  0.36055767823E+03  0.37043111311E+03  0.00000000000E+00 0.  1.
         21    1    1    2  505  503 -0.56078444142E+02  0.87792830907E+01 -0.10957099859E+03  0.12340045155E+03  0.00000000000E+00 0.  1.
         21    1    1    2  506  501  0.11300853401E+03 -0.16305183845E+02  0.58424592704E+03  0.59529832105E+03  0.00000000000E+00 0.  1.
<scales pt_clust_3="32.01233" pt_clust_4="105.35976" pt_clust_5="56.76150" pt_clust_6="32.01233"></scales>
<clustering>
<clus scale="   32.012">  3  6 -1 -1</clus>
<clus scale="   56.761">  2  5  1 -1</clus>
<clus scale="  105.360">  1  4  2 -1</clus>
<clus scale="  105.360">  1  3  2 -1</clus>
</clustering>
</event>
<event>
 6    0  0.1555973E+002  0.1495189E+03  0.7546771E-02  0.1201065E+00
         21   -1    0    0  505  501  0.00000000000E+00  0.00000000000E+00  0.11788242510E+04  0.11788242510E+04  0.00000000000E+00 0.  1.
         21   -1    0    0  504  502 -0.00000000000E+00 -0.00000000000E+00 -0.29816471702E+03  0.29816471702E+03  0.00000000000E+00 0.  1.
         21    1    1    2  503  502 -0.88246191250E+02 -0.12211521360E+03 -0.25584841275E+03  0.29691400433E+03  0.00000000000E+00 0.  1.
         21    1    1    2  504  506  0.30538766040E+02  0.26951792330E+02  0.21876912933E+02  0.46234345032E+02  0.00000000000E+00 0. -1.
         21    1    1    2  505  503  0.18676771238E+02  0.97101662007E+02  0.10698334593E+04  0.10743934033E+04  0.00000000000E+00 0.  1.
         21    1    1    2  506  501  0.39030653972E+02 -0.19382407388E+01  0.44797574572E+02  0.59447215361E+02  0.00000000000E+00 0.  1.
<scales pt_clust_3="149.51893" pt_clust_4="81.99454" pt_clust_5="14000.00000" pt_clust_6="34.73487"></scales>
<clustering>
<clus scale="   34.735">  4  6 -1 -1</clus>
<clus scale="   81.995">  1  4  2 -1</clus>
<clus scale="  149.519">  2  3  1 -1</clus>
<clus scale="   81.995">  1  3  2 -1</clus>
</clustering>
</event>
<event>
 6    0  0.1555973E+002  0.1148554E+03  0.7546771E-02  0.1251834E+00
         21   -1    0    0  505  501  0.00000000000E+00  0.00000000000E+00  0.12246592628E+04  0.12246592628E+04  0.00000000000E+00 0. -1.
         21   -1    0    0  504  502 -0.00000000000E+00 -0.00000000000E+00 -0.22836219319E+03  0.22836219319E+03  0.00000000000E+00 0. -1.
         21    1    1    2  503  501 -0.35405479619E+02 -0.17218037440E+02  0.14037844224E+03  0.14579477304E+03  0.00000000000E+00 0. -1.
         21    1    1    2  504  503 -0.19945740790E+02  0.45210873116E+02 -0.20330463629E+03  0.20922387713E+03  0.00000000000E+00 0. -1.
         21    1    1    2  505  506  0.47901037632E+02 -0.11279474626E+03  0.95771550988E+03  0.96552377601E+03  0.00000000000E+00 0. -1.
         21    1    1    2  506  502  0.74501827767E+01  0.84801910586E+02  0.10150775382E+03  0.13247902985E+03  0.00000000000E+00 0. -1.
<scales pt_clust_3="39.37015" pt_clust_4="49.41125" pt_clust_5="14000.00000" pt_clust_6="114.85543"></scales>
<clustering>
<clus scale="   39.370">  1  3  2 -1</clus>
<clus scale="   49.411">  2  4  1 -1</clus>
<clus scale="  114.855">  2  6  1 -1</clus>
<clus scale="   39.370">  1  3  2 -1</clus>
</clustering>
</event>
<event>
 6    0  0.1555973E+002  0.9587709E+02  0.7546771E-02  0.1289213E+00
         21   -1    0    0  503  501  0.00000000000E+00  0.00000000000E+00  0.25710603344E+03  0.25710603344E+03  0.00000000000E+00 0. -1.
         21   -1    0    0  504  502 -0.00000000000E+00 -0.00000000000E+00 -0.15338372981E+03  0.15338372981E+03  0.00000000000E+00 0.  1.
         21    1    1    2  503  506  0.58484054919E+02 -0.54883149795E+02  0.48079966329E+02  0.93510576800E+02  0.00000000000E+00 0. -1.
         21    1    1    2  504  505  0.53630966985E+02  0.31529087321E+01 -0.46506288428E+01  0.53924482398E+02  0.00000000000E+00 0.  1.
         21    1    1    2  505  501 -0.62369865077E+02  0.92218465456E+02  0.12810093583E+03  0.16971769266E+03  0.00000000000E+00 0. -1.
         21    1    1    2  506  502 -0.49745156828E+02 -0.40488224393E+02 -0.67807969693E+02  0.93337011395E+02  0.00000000000E+00 0.  1.
<scales pt_clust_3="95.87709" pt_clust_4="53.72357" pt_clust_5="14000.00000" pt_clust_6="41.23644"></scales>
<clustering>
<clus scale="   53.724">  2  4  1 -1</clus>
<clus scale="   41.236">  2  6  1 -1</clus>
<clus scale="   95.877">  2  3  1 -1</clus>
<clus scale="   95.877">  1  3  2 -1</clus>
</clustering>
</event>
<event>
 6    0  0.1555973E+002  0.1662476E+03  0.7546771E-02  0.1181818E+00
         21   -1    0    0  504  501  0.00000000000E+00  0.00000000000E+00  0.56159817465E+03  0.56159817465E+03  0.00000000000E+00 0. -1.
         21   -1    0    0  505  502 -0.00000000000E+00 -0.00000000000E+00 -0.75188001627E+03  0.75188001627E+03  0.00000000000E+00 0. -1.
         21    1    1    2  503  506 -0.68215787538E+02  0.80496828998E+02  0.13811461330E+03  0.17380673046E+03  0.00000000000E+00 0. -1.
         21    1    1    2  504  502 -0.85610710847E+02 -0.99410175394E+02  0.14588602816E+03  0.19619966869E+03  0.00000000000E+00 0. -1.
         21    1    1    2  505  503  0.16921922185E+03 -0.30183676490E+02 -0.69546045717E+03  0.71638777688E+03  0.00000000000E+00 0. -1.
         21    1    1    2  506  501 -0.15392723467E+02  0.49097022886E+02  0.22117797409E+03  0.22708401489E+03  0.00000000000E+00 0. -1.
<scales pt_clust_3="14000.00000" pt_clust_4="119.49877" pt_clust_5="166.24761" pt_clust_6="51.45341"></scales>
<clustering>
<clus scale="   51.453">  1  6  2 -1</clus>
<clus scale="  119.499">  1  4  2 -1</clus>
<clus scale="  166.248">  2  5  1 -1</clus>
<clus scale="   51.453">  1  3  2 -1</clus>
</clustering>
</event>
<event>
 6    0  0.1555973E+002  0.7727153E+02  0.7546771E-02  0.1336978E+00
         21   -1    0    0  503  501  0.00000000000E+00  0.00000000000E+00  0.11263196386E+04  0.11263196386E+04  0.00000000000E+00 0. -1.
         21   -1    0    0  506  502 -0.00000000000E+00 -0.00000000000E+00 -0.19116784198E+02  0.19116784198E+02  0.00000000000E+00 0. -1.
         21    1    1    2  503  504  0.30013456268E+02  0.34660391920E+02  0.34096328639E+03  0.34403213947E+03  0.00000000000E+00 0. -1.
         21    1    1    2  504  505 -0.67509004527E+02  0.39803806631E+02  0.26235269521E+03  0.27380786219E+03  0.00000000000E+00 0. -1.
         21    1    1    2  505  502 -0.34889136280E+02 -0.55276219899E+02  0.12171126494E+03  0.13815333630E+03  0.00000000000E+00 0. -1.
         21    1    1    2  506  501  0.72384684540E+02 -0.19187978652E+02  0.38217560789E+03  0.38944308486E+03  0.00000000000E+00 0. -1.
<scales pt_clust_3="45.84921" pt_clust_4="77.27153" pt_clust_5="57.86299" pt_clust_6="14000.00000"></scales>
<clustering>
<clus scale="   45.849">  1  3  2 -1</clus>
<clus scale="   57.863">  2  5  1 -1</clus>
<clus scale="   77.272">  2  4  1 -1</clus>
<clus scale="   45.849">  1  3  2 -1</clus>
</clustering>
</event>
<event>
 6    0  0.1555973E+002  0.1536761E+03  0.7546771E-02  0.1196027E+00
         21   -1    0    0  505  501  0.00000000000E+00  0.00000000000E+00  0.89767981490E+02  0.89767981490E+02  0.00000000000E+00 0.  1.
         21   -1    0    0  506  502 -0.00000000000E+00 -0.00000000000E+00 -0.85603879780E+03  0.85603879780E+03  0.00000000000E+00 0.  1.
         21    1    1    2  503  502  0.14011668646E+03 -0.52887613469E+02 -0.74923726012E+03  0.76405906672E+03  0.00000000000E+00 0.  1.
         21    1    1    2  504  503 -0.39280931012E+02 -0.13367688781E+02 -0.89423855505E+01  0.42445882060E+02  0.00000000000E+00 0.  1.
         21    1    1    2  505  504 -0.82603129996E+02  0.26621488394E+02  0.17768202885E+02  0.88587187354E+02  0.00000000000E+00 0.  1.
         21    1    1    2  506  501 -0.18232625450E+02  0.39633813856E+02 -0.25859373524E+02  0.50714643158E+02  0.00000000000E+00 0.  1.
<scales pt_clust_3="146.81947" pt_clust_4="31.38594" pt_clust_5="31.38594" pt_clust_6="43.62646"></scales>
<clustering>
<clus scale="   31.386">  4  5 -1 -1</clus>
<clus scale="   43.626">  1  6  2 -1</clus>
<clus scale="  146.819">  2  3  1 -1</clus>
<clus scale="   43.626">  1  3  2 -1</clus>
</clustering>
</event>
<event>
 6    0  0.1555973E+002  0.1068753E+03  0.7546771E-02  0.1266468E+00
         21   -1    0    0  504  501  0.00000000000E+00  0.00000000000E+00  0.24943292777E+03  0.24943292777E+03  0.00000000000E+00 0.  1.
         21   -1    0    0  503  502 -0.00000000000E+00 -0.00000000000E+00 -0.71162511177E+03  0.71162511177E+03  0.00000000000E+00 0.  1.
         21    1    1    2  503  505 -0.10632462755E+03 -0.78817064282E+00 -0.64700235269E+03  0.65568101392E+03  0.00000000000E+00 0.  1.
         21    1    1    2  504  502  0.13164167173E+03 -0.15068717725E+02  0.17303954996E+03  0.21794329960E+03  0.00000000000E+00 0.  1.
         21    1    1    2  505  506 -0.46268212642E+02 -0.98181261095E+01 -0.92446765557E+01  0.48193434678E+02  0.00000000000E+00 0.  1.
         21    1    1    2  506  501  0.20951168456E+02  0.25675014477E+02  0.21015295287E+02  0.39240291335E+02  0.00000000000E+00 0.  1.
<scales pt_clust_3="14000.00000" pt_clust_4="106.87531" pt_clust_5="45.04300" pt_clust_6="33.13846"></scales>
<clustering>
<clus scale="   33.138">  1  6  2 -1</clus>
<clus scale="   45.043">  1  5  2 -1</clus>
<clus scale="  106.875">  1  4  2 -1</clus>
<clus scale="   33.138">  1  3  2 -1</clus>
</clustering>
</event>
<event>
 6    0  0.1555973E+002  0.1345277E+03  0.7546771E-02  0.1220888E+00
         21   -1    0    0  505  501  0.00000000000E+00  0.00000000000E+00  0.16772194256E+04  0.16772194256E+04  0.00000000000E+00 0. -1.
         21   -1    0    0  504  502 -0.00000000000E+00 -0.00000000000E+00 -0.56297196165E+02  0.56297196165E+02  0.00000000000E+00 0. -1.
         21    1    1    2  503  501 -0.84284578915E+02 -0.58581838223E+02  0.18198521227E+03  0.20893620916E+03  0.00000000000E+00 0. -1.
         21    1    1    2  504  503 -0.30252334777E+02 -0.68511202683E+02  0.17811231693E+01  0.74914358118E+02  0.00000000000E+00 0. -1.
         21    1    1    2  505  506  0.29560263756E+02  0.52185689225E+02  0.24895779588E+03  0.25608033795E+03  0.00000000000E+00 0. -1.
         21    1    1    2  506  502  0.84976649936E+02  0.74907351680E+02  0.11881980981E+04  0.11935857165E+04  0.00000000000E+00 0. -1.
<scales pt_clust_3="14000.00000" pt_clust_4="73.28701" pt_clust_5="59.97629" pt_clust_6="134.52768"></scales>
<clustering>
<clus scale="   59.976">  1  5  2 -1</clus>
<clus scale="   73.287">  2  4  1 -1</clus>
<clus scale="  134.528">  1  6  2 -1</clus>
<clus scale="   59.976">  1  3  2 -1</clus>
</clustering>
</event>
<event>
 6    0  0.1555973E+002  0.1166081E+03  0.7546771E-02  0.1248800E+00
         21   -1    0    0  504  501  0.00000000000E+00  0.00000000000E+00  0.69203250647E+02  0.69203250647E+02  0.00000000000E+00 0.  1.
         21   -1    0    0  503  502 -0.00000000000E+00 -0.00000000000E+00 -0.94283669570E+03  0.94283669570E+03  0.00000000000E+00 0.  1.
         21    1    1    2  503  505  0.25309505653E+02 -0.30224374778E+02  0.98171909272E+01  0.40625867927E+02  0.00000000000E+00 0.  1.
         21    1    1    2  504  506  0.64442605879E+02  0.60022137977E+02 -0.34104668257E+02  0.94438524431E+02  0.00000000000E+00 0.  1.
         21    1    1    2  505  501  0.31414024240E+02 -0.93856788918E+01 -0.19635802622E+02  0.38216444521E+02  0.00000000000E+00 0.  1.
         21    1    1    2  506  502 -0.12116613577E+03 -0.20412084306E+02 -0.82971016510E+03  0.83875910947E+03  0.00000000000E+00 0.  1.
<scales pt_clust_3="51.50554" pt_clust_4="14000.00000" pt_clust_5="32.78615" pt_clust_6="116.60808"></scales>
<clustering>
<clus scale="   32.786">  1  5  2 -1</clus>
<clus scale="   51.506">  1  3  2 -1</clus>
<clus scale="  116.608">  2  6  1 -1</clus>
<clus scale="   32.786">  1  3  2 -1</clus>
</clustering>
</event>
<event>
 6    0  0.1555973E+002  0.2463677E+03  0.7546771E-02  0.1115622E+00
         21   -1    0    0  504  501  0.00000000000E+00  0.00000000000E+00  0.34345475465E+03  0.34345475465E+03  0.00000000000E+00 0. -1.
         21   -1    0    0  505  502 -0.00000000000E+00 -0.00000000000E+00 -0.17017338841E+04  0.17017338841E+04  0.00000000000E+00 0.  1.
         21    1    1    2  503  501  0.66626627746E+02 -0.23787596024E+03  0.18393654912E+03  0.30798820446E+03  0.00000000000E+00 0. -1.
         21    1    1    2  504  506  0.28686528380E+02  0.93975743996E+02 -0.86901536809E+01  0.98640134535E+02  0.00000000000E+00 0. -1.
         21    1    1    2  505  503 -0.24554811793E+01 -0.69805987132E+02  0.15963080966E+02  0.71650018710E+02  0.00000000000E+00 0. -1.
         21    1    1    2  506  502 -0.92857674946E+02  0.21370620338E+03 -0.15494886059E+04  0.15669102811E+04  0.00000000000E+00 0.  1.
<scales pt_clust_3="38.99996" pt_clust_4="98.25659" pt_clust_5="38.99996" pt_clust_6="235.19747"></scales>
<clustering>
<clus scale="   39.000">  3  5 -1 -1</clus>
<clus scale="   98.257">  1  4  2 -1</clus>
<clus scale="  235.197">  2  6  1 -1</clus>
<clus scale="   98.257">  1  3  2 -1</clus>
</clustering>
</event>
<event>
 6    0  0.1555973E+002  0.2552654E+03  0.7546771E-02  0.1110022E+00
         21   -1    0    0  505  501  0.00000000000E+00  0.00000000000E+00  0.33808882027E+03  0.33808882027E+03  0.00000000000E+00 0. -1.
         21   -1    0    0  501  502 -0.00000000000E+00 -0.00000000000E+00 -0.20047857358E+04  0.20047857358E+04  0.00000000000E+00 0.  1.
         21    1    1    2  503  502 -0.35274556354E+02 -0.96367613047E+01 -0.11826202928E+04  0.11831854962E+04  0.00000000000E+00 0.  1.
         21    1    1    2  504  506  0.18895438372E+03 -0.10181570144E+03 -0.49119119133E+03  0.53604009423E+03  0.00000000000E+00 0.  1.
         21    1    1    2  505  504 -0.20618899508E+03  0.12078824683E+03  0.26701643149E+03  0.35833151822E+03  0.00000000000E+00 0. -1.
         21    1    1    2  506  503  0.52509167714E+02 -0.93357840833E+01 -0.25990186287E+03  0.26531744737E+03  0.00000000000E+00 0.  1.
<scales pt_clust_3="36.56722" pt_clust_4="39.97602" pt_clust_5="240.38842" pt_clust_6="39.97602"></scales>
<clustering>
<clus scale="   36.567">  2  3  1 -1</clus>
<clus scale="   39.976">  4  6 -1 -1</clus>
<clus scale="  240.388">  1  5  2 -1</clus>
<clus scale="  240.388">  1  3  2 -1</clus>
</clustering>
</event>
<event>
 6    0  0.1555973E+002  0.1197040E+03  0.7546771E-02  0.1243586E+00
         21   -1    0    0  505  501  0.00000000000E+00  0.00000000000E+00  0.41198302841E+03  0.41198302841E+03  0.00000000000E+00 0. -1.
         21   -1    0    0  503  502 -0.00000000000E+00 -0.00000000000E+00 -0.61407896069E+02  0.61407896069E+02  0.00000000000E+00 0. -1.
         21    1    1    2  503  501 -0.90567736852E+02 -0.87219598753E+02  0.94254299374E+02  0.15714212139E+03  0.00000000000E+00 0. -1.
         21    1    1    2  504  502  0.32205867875E+02  0.24018477748E+02  0.38168886397E+02  0.55416325101E+02  0.00000000000E+00 0. -1.
         21    1    1    2  505  506  0.49362959682E+02 -0.73217374763E+01  0.16411030424E+03  0.17152988540E+03  0.00000000000E+00 0. -1.
         21    1    1    2  506  504  0.89989092948E+01  0.70522858482E+02  0.54041642337E+02  0.89302592591E+02  0.00000000000E+00 0. -1.
<scales pt_clust_3="111.91142" pt_clust_4="31.93664" pt_clust_5="49.90300" pt_clust_6="31.93664"></scales>
<clustering>
<clus scale="   31.937">  4  6 -1 -1</clus>
<clus scale="   49.903">  1  5  2 -1</clus>
<clus scale="  111.911">  1  3  2 -1</clus>
<clus scale="   49.903">  1  3  2 -1</clus>
</clustering>
</event>
<event>
 6    0  0.2480553E+002  0.1304087E+03  0.7546771E-02  0.1226851E+00
         21   -1    0    0  505  501  0.00000000000E+00  0.00000000000E+00  0.26114555523E+03  0.26114555523E+03  0.00000000000E+00 0.  1.
         21   -1    0    0  504  502 -0.00000000000E+00 -0.00000000000E+00 -0.17859693287E+04  0.17859693287E+04  0.00000000000E+00 0.  1.
         21    1    1    2  503  501 -0.86858708558E+01  0.31099606581E+02  0.18062989123E+02  0.36998668328E+02  0.00000000000E+00 0. -1.
         21    1    1    2  504  506  0.88561779926E+02 -0.96209969121E+02 -0.17354132873E+04  0.17403329637E+04  0.00000000000E+00 0.  1.
         21    1    1    2  505  502 -0.52153641134E+02  0.85846632501E+02  0.20866781599E+03  0.23158563000E+03  0.00000000000E+00 0.  1.
         21    1    1    2  506  503 -0.27722267936E+02 -0.20736269961E+02 -0.16141291322E+02  0.38197621876E+02  0.00000000000E+00 0.  1.
<scales pt_clust_3="32.28978" pt_clust_4="14000.00000" pt_clust_5="130.40866" pt_clust_6="34.09822"></scales>
<clustering>
<clus scale="   32.290">  1  3  2 -1</clus>
<clus scale="   34.098">  1  6  2 -1</clus>
<clus scale="  130.409">  1  5  2 -1</clus>
<clus scale="   32.290">  1  3  2 -1</clus>
</clustering>
</event>
<event>
 6    0  0.1555973E+002  0.1281847E+03  0.7546771E-02  0.1230174E+00
         21   -1    0    0  505  501  0.00000000000E+00  0.00000000000E+00  0.13554983437E+04  0.13554983437E+04  0.00000000000E+00 0. -1.
         21   -1    0    0  504  502 -0.00000000000E+00 -0.00000000000E+00 -0.33527833919E+02  0.33527833919E+02  0.00000000000E+00 0. -1.
         21    1    1    2  503  506  0.70308156242E+02 -0.88396595695E+02  0.48716016233E+03  0.50008221197E+03  0.00000000000E+00 0. -1.
         21    1    1    2  504  501  0.38880871012E+02  0.53866000030E+02  0.20699679719E+03  0.21739581904E+03  0.00000000000E+00 0. -1.
         21    1    1    2  505  503  0.33605857529E+02  0.51946137157E+01  0.39766255509E+03  0.39911382511E+03  0.00000000000E+00 0. -1.
         21    1    1    2  506  502 -0.14279488478E+03  0.29335981949E+02  0.23015099521E+03  0.27243432154E+03  0.00000000000E+00 0. -1.
<scales pt_clust_3="128.18473" pt_clust_4="71.92739" pt_clust_5="34.00497" pt_clust_6="14000.00000"></scales>
<clustering>
<clus scale="   34.005">  1  5  2 -1</clus>
<clus scale="   71.927">  1  4  2 -1</clus>
<clus scale="  128.185">  1  3  2 -1</clus>
<clus scale="   34.005">  1  3  2 -1</clus>
</clustering>
</event>
<event>
 6    0  0.1555973E+002  0.1072273E+03  0.7546771E-02  0.1265792E+00
         21   -1    0    0  504  501  0.00000000000E+00  0.00000000000E+00  0.51709684006E+03  0.51709684006E+03  0.00000000000E+00 0.  1.
         21   -1    0    0  505  502 -0.00000000000E+00 -0.00000000000E+00 -0.21661877852E+03  0.21661877852E+03  0.00000000000E+00 0.  1.
         21    1    1    2  503  501 -0.26720798886E+02  0.32591993797E+02  0.48664064567E+02  0.64377250119E+02  0.00000000000E+00 0. -1.
         21    1    1    2  504  502 -0.12221138334E+03 -0.30241824508E+02  0.18176215888E+03  0.22110556883E+03  0.00000000000E+00 0.  1.
         21    1    1    2  505  506  0.43963691214E+02 -0.17641978786E+01 -0.17563431013E+03  0.18106167301E+03  0.00000000000E+00 0.  1.
         21    1    1    2  506  503  0.10496849101E+03 -0.58597141004E+00  0.24568614822E+03  0.26717112661E+03  0.00000000000E+00 0.  1.
<scales pt_clust_3="42.14545" pt_clust_4="14000.00000" pt_clust_5="43.83446" pt_clust_6="107.22728"></scales>
<clustering>
<clus scale="   42.145">  1  3  2 -1</clus>
<clus scale="   43.834">  2  5  1 -1</clus>
<clus scale="  107.227">  1  6  2 -1</clus>
<clus scale="   42.145">  1  3  2 -1</clus>
</clustering>
</event>
<event>
 6    0  0.1555973E+002  0.8650946E+02  0.7546771E-02  0.1311532E+00
         21   -1    0    0  505  501  0.00000000000E+00  0.00000000000E+00  0.81984495253E+02  0.81984495253E+02  0.00000000000E+00 0. -1.
         21   -1    0    0  504  502 -0.00000000000E+00 -0.00000000000E+00 -0.93014575870E+03  0.93014575870E+03  0.00000000000E+00 0. -1.
         21    1    1    2  503  501 -0.26249150636E+02  0.46248303722E+02  0.28070766696E+02  0.60132282920E+02  0.00000000000E+00 0. -1.
         21    1    1    2  504  503  0.57287341323E+02  0.65493247516E+02 -0.77348362779E+03  0.77836246531E+03  0.00000000000E+00 0. -1.
         21    1    1    2  505  506 -0.33151070943E+02 -0.55075485577E+01 -0.21773793432E+02  0.40042785570E+02  0.00000000000E+00 0. -1.
         21    1    1    2  506  502  0.21128802559E+01 -0.10623400268E+03 -0.80974608929E+02  0.13359272016E+03  0.00000000000E+00 0. -1.
<scales pt_clust_3="63.14254" pt_clust_4="14000.00000" pt_clust_5="33.60545" pt_clust_6="86.50946"></scales>
<clustering>
<clus scale="   33.605">  1  5  2 -1</clus>
<clus scale="   63.143">  1  3  2 -1</clus>
<clus scale="   86.509">  1  6  2 -1</clus>
<clus scale="   33.605">  1  3  2 -1</clus>
</clustering>
</event>
<event>
 6    0  0.1555973E+002  0.7970431E+02  0.7546771E-02  0.1329893E+00
         21   -1    0    0  503  501  0.00000000000E+00  0.00000000000E+00  0.15160164723E+03  0.15160164723E+03  0.00000000000E+00 0. -1.
         21   -1    0    0  504  502 -0.00000000000E+00 -0.00000000000E+00 -0.40360434738E+03  0.40360434738E+03  0.00000000000E+00 0.  1.
         21    1    1    2  503  505 -0.30431317910E+02  0.44682643240E+02  0.66854368953E+02  0.85977382868E+02  0.00000000000E+00 0. -1.
         21    1    1    2  504  506 -0.29602645416E+02 -0.95077546182E+02 -0.12069490047E+01  0.99586711611E+02  0.00000000000E+00 0. -1.
         21    1    1    2  505  502  0.33577912841E+02  0.70330840051E+02 -0.32624002438E+03  0.33541982171E+03  0.00000000000E+00 0.  1.
         21    1    1    2  506  501  0.26456050485E+02 -0.19935937109E+02  0.85899042841E+01  0.34222078419E+02  0.00000000000E+00 0. -1.
<scales pt_clust_3="36.19254" pt_clust_4="14000.00000" pt_clust_5="79.70431" pt_clust_6="33.12649"></scales>
<clustering>
<clus scale="   33.126">  1  6  2 -1</clus>
<clus scale="   36.193">  1  3  2 -1</clus>
<clus scale="   79.704">  2  5  1 -1</clus>
<clus scale="   33.126">  1  3  2 -1</clus>
</clustering>
</event>
<event>
 6    0  0.1555973E+002  0.1239890E+03  0.7546771E-02  0.1236658E+00
         21   -1    0    0  504  501  0.00000000000E+00  0.00000000000E+00  0.18196611727E+04  0.18196611727E+04  0.00000000000E+00 0.  1.
         21   -1    0    0  506  502 -0.00000000000E+00 -0.00000000000E+00 -0.11449472522E+03  0.11449472522E+03  0.00000000000E+00 0.  1.
         21    1    1    2  503  501  0.10413273036E+03 -0.58360907470E+02  0.80232606015E+03  0.81115764673E+03  0.00000000000E+00 0.  1.
         21    1    1    2  504  505 -0.13461697018E+03  0.10500857872E+02  0.96381961555E+03  0.97323185726E+03  0.00000000000E+00 0.  1.
         21    1    1    2  505  502 -0.86311470925E+01  0.50371454839E+02 -0.88275938306E+02  0.10200206589E+03  0.00000000000E+00 0.  1.
         21    1    1    2  506  503  0.39115386910E+02 -0.25114052404E+01  0.27296710049E+02  0.47764327996E+02  0.00000000000E+00 0.  1.
<scales pt_clust_3="14000.00000" pt_clust_4="123.98904" pt_clust_5="55.17260" pt_clust_6="39.19593"></scales>
<clustering>
<clus scale="   39.196">  2  6  1 -1</clus>
<clus scale="   55.173">  2  5  1 -1</clus>
<clus scale="  123.989">  2  4  1 -1</clus>
<clus scale="  123.989">  1  3  2 -1</clus>
</clustering>
</event>
<event>
 6    0  0.1555973E+002  0.7897520E+02  0.7546771E-02  0.1331985E+00
         21   -1    0    0  503  501  0.00000000000E+00  0.00000000000E+00  0.24639461450E+03  0.24639461450E+03  0.00000000000E+00 0.  1.
         21   -1    0    0  504  502 -0.00000000000E+00 -0.00000000000E+00 -0.22357899647E+03  0.22357899647E+03  0.00000000000E+00 0.  1.
         21    1    1    2  503  505 -0.74548111872E+02 -0.37486922674E+02  0.24100381349E+02  0.86853432496E+02  0.00000000000E+00 0. -1.
         21    1    1    2  504  506  0.53530144478E+02  0.58208536332E+02  0.25964241968E+02  0.83233718712E+02  0.00000000000E+00 0.  1.
         21    1    1    2  505  502 -0.50338441448E+02 -0.50609967915E+02 -0.14348435024E+03  0.16025943437E+03  0.00000000000E+00 0.  1.
         21    1    1    2  506  501  0.71356408842E+02  0.29888354258E+02  0.11623534496E+03  0.13962702539E+03  0.00000000000E+00 0.  1.
<scales pt_clust_3="78.97520" pt_clust_4="50.60981" pt_clust_5="71.38156" pt_clust_6="14000.00000"></scales>
<clustering>
<clus scale="   71.382">  2  5  1 -1</clus>
<clus scale="   50.610">  2  4  1 -1</clus>
<clus scale="   78.975">  2  3  1 -1</clus>
<clus scale="   78.975">  1  3  2 -1</clus>
</clustering>
</event>
<event>
 6    0  0.1555973E+002  0.1266546E+03  0.7546771E-02  0.1232506E+00
         21   -1    0    0  503  501  0.00000000000E+00  0.00000000000E+00  0.42780274812E+03  0.42780274812E+03  0.00000000000E+00 0.  1.
         21   -1    0    0  506  502 -0.00000000000E+00 -0.00000000000E+00 -0.88501189330E+02  0.88501189330E+02  0.00000000000E+00 0.  1.
         21    1    1    2  503  502  0.65204742886E+02  0.10735824879E+03 -0.88973111130E+01  0.12592304881E+03  0.00000000000E+00 0.  1.
         21    1    1    2  504  505  0.11195708257E+02 -0.63654048872E+02  0.12389563967E+03  0.13974015654E+03  0.00000000000E+00 0.  1.
         21    1    1    2  505  501 -0.54249714783E+02  0.79008979403E+01  0.12635640834E+03  0.13773669689E+03  0.00000000000E+00 0.  1.
         21    1    1    2  506  504 -0.22150736360E+02 -0.51605097855E+02  0.97946821894E+02  0.11290403520E+03  0.00000000000E+00 0.  1.
<scales pt_clust_3="121.78281" pt_clust_4="32.42925" pt_clust_5="54.82204" pt_clust_6="32.42925"></scales>
<clustering>
<clus scale="   32.429">  4  6 -1 -1</clus>
<clus scale="   54.822">  1  5  2 -1</clus>
<clus scale="  121.783">  2  3  1 -1</clus>
<clus scale="   54.822">  1  3  2 -1</clus>
</clustering>
</event>
<event>
 6    0  0.1555973E+002  0.1269951E+03  0.7546771E-02  0.1231984E+00
         21   -1    0    0  506  501  0.00000000000E+00  0.00000000000E+00  0.55087828295E+02  0.55087828295E+02  0.00000000000E+00 0. -1.
         21   -1    0    0  503  502 -0.00000000000E+00 -0.00000000000E+00 -0.15982869990E+04  0.15982869990E+04  0.00000000000E+00 0. -1.
         21    1    1    2  503  505 -0.21619575375E+02  0.33038248814E+02 -0.24645930301E+02  0.46544106012E+02  0.00000000000E+00 0. -1.
         21    1    1    2  504  502  0.11804546120E+03 -0.24408674594E+02 -0.14929428046E+04  0.14978012993E+04  0.00000000000E+00 0. -1.
         21    1    1    2  505  501 -0.54940037700E+02  0.11504691744E+02  0.30517565652E+00  0.56132511140E+02  0.00000000000E+00 0. -1.
         21    1    1    2  506  504 -0.41485848124E+02 -0.20134265964E+02 -0.25915611433E+02  0.52896910840E+02  0.00000000000E+00 0. -1.
<scales pt_clust_3="38.47549" pt_clust_4="118.41950" pt_clust_5="38.47549" pt_clust_6="46.11360"></scales>
<clustering>
<clus scale="   38.475">  3  5 -1 -1</clus>
<clus scale="   46.114">  1  6  2 -1</clus>
<clus scale="  118.420">  2  4  1 -1</clus>
<clus scale="   46.114">  1  3  2 -1</clus>
</clustering>
</event>
<event>
 6    0  0.1555973E+002  0.2049316E+03  0.7546771E-02  0.1145644E+00
         21   -1    0    0  505  501  0.00000000000E+00  0.00000000000E+00  0.31631319819E+03  0.31631319819E+03  0.00000000000E+00 0. -1.
         21   -1    0    0  506  502 -0.00000000000E+00 -0.00000000000E+00 -0.17199671178E+03  0.17199671178E+03  0.00000000000E+00 0. -1.
         21    1    1    2  503  504 -0.49956562194E+02 -0.25117960526E+02  0.51889349554E+02  0.76282859440E+02  0.00000000000E+00 0.  1.
         21    1    1    2  504  501 -0.38086621135E+01 -0.41059963898E+02  0.65987952896E+02  0.77812829725E+02  0.00000000000E+00 0. -1.
         21    1    1    2  505  502  0.93437112082E+02  0.18260946492E+03 -0.11623164339E+02  0.20545512537E+03  0.00000000000E+00 0. -1.
         21    1    1    2  506  503 -0.39671887774E+02 -0.11643154049E+03  0.38062348297E+02  0.12875909544E+03  0.00000000000E+00 0. -1.
<scales pt_clust_3="51.77672" pt_clust_4="41.23623" pt_clust_5="190.04104" pt_clust_6="51.77672"></scales>
<clustering>
<clus scale="   41.236">  1  4  2 -1</clus>
<clus scale="   51.777">  3  6 -1 -1</clus>
<clus scale="  190.041">  2  5  1 -1</clus>
<clus scale="   41.236">  1  3  2 -1</clus>
</clustering>
</event>
<event>
 6    0  0.1555973E+002  0.8553262E+02  0.7546771E-02  0.1314046E+00
         21   -1    0    0  505  501  0.00000000000E+00  0.00000000000E+00  0.84358581195E+03  0.84358581195E+03  0.00000000000E+00 0. -1.
         21   -1    0    0  503  502 -0.00000000000E+00 -0.00000000000E+00 -0.24683799179E+03  0.24683799179E+03  0.00000000000E+00 0.  1.
         21    1    1    2  503  506  0.25083146955E+02  0.82167301141E+02 -0.22184245017E+03  0.23789641093E+03  0.00000000000E+00 0.  1.
         21    1    1    2  504  502 -0.87734240441E+02 -0.52147118867E+02  0.17570591419E+03  0.20319740951E+03  0.00000000000E+00 0.  1.
         21    1    1    2  505  504  0.40869412585E+02  0.78378992878E+01  0.19915864865E+03  0.20345984587E+03  0.00000000000E+00 0.  1.
         21    1    1    2  506  501  0.21781680901E+02 -0.37858081562E+02  0.44372570749E+03  0.44587013743E+03  0.00000000000E+00 0. -1.
<scales pt_clust_3="14000.00000" pt_clust_4="85.53262" pt_clust_5="41.61420" pt_clust_6="59.66765"></scales>
<clustering>
<clus scale="   41.614">  1  5  2 -1</clus>
<clus scale="   59.668">  1  6  2 -1</clus>
<clus scale="   85.533">  1  4  2 -1</clus>
<clus scale="   41.614">  1  3  2 -1</clus>
</clustering>
</event>
<event>
 6    0  0.1555973E+002  0.1342771E+03  0.7546771E-02  0.1221244E+00
         21   -1    0    0  504  501  0.00000000000E+00  0.00000000000E+00  0.12827537517E+04  0.12827537517E+04  0.00000000000E+00 0. -1.
         21   -1    0    0  505  502 -0.00000000000E+00 -0.00000000000E+00 -0.62377251055E+03  0.62377251055E+03  0.00000000000E+00 0. -1.
         21    1    1    2  503  506  0.28083752213E+02  0.57075250949E+02  0.20099098010E+03  0.21081663950E+03  0.00000000000E+00 0.  1.
         21    1    1    2  504  502  0.77566688587E+02 -0.38785324661E+00  0.90960471339E+03  0.91290606101E+03  0.00000000000E+00 0. -1.
         21    1    1    2  505  503 -0.13024857339E+03 -0.34568799736E+02 -0.60810367516E+03  0.62285614112E+03  0.00000000000E+00 0. -1.
         21    1    1    2  506  501  0.24598132592E+02 -0.22118597966E+02  0.15648922277E+03  0.15994742057E+03  0.00000000000E+00 0. -1.
<scales pt_clust_3="62.23859" pt_clust_4="134.27714" pt_clust_5="14000.00000" pt_clust_6="33.08021"></scales>
<clustering>
<clus scale="   33.080">  1  6  2 -1</clus>
<clus scale="   62.239">  1  3  2 -1</clus>
<clus scale="  134.277">  1  4  2 -1</clus>
<clus scale="   33.080">  1  3  2 -1</clus>
</clustering>
</event>
<event>
 6    0  0.1555973E+002  0.8023116E+02  0.7546771E-02  0.1328397E+00
         21   -1    0    0  504  501  0.00000000000E+00  0.00000000000E+00  0.47503183541E+03  0.47503183541E+03  0.00000000000E+00 0.  1.
         21   -1    0    0  503  502 -0.00000000000E+00 -0.00000000000E+00 -0.63296497454E+02  0.63296497454E+02  0.00000000000E+00 0.  1.
         21    1    1    2  503  506  0.12989964426E+02  0.55727035570E+02 -0.53282476067E+01  0.57468529577E+02  0.00000000000E+00 0.  1.
         21    1    1    2  504  505  0.77152060622E+01 -0.10254908447E+03  0.29423964484E+03  0.31169345153E+03  0.00000000000E+00 0.  1.
         21    1    1    2  505  502 -0.60487957595E+02  0.30766734619E+02  0.48721225762E+02  0.83541264133E+02  0.00000000000E+00 0.  1.
         21    1    1    2  506  501  0.39782787107E+02  0.16055314279E+02  0.74102714961E+02  0.85625087627E+02  0.00000000000E+00 0.  1.
<scales pt_clust_3="58.89389" pt_clust_4="14000.00000" pt_clust_5="80.23116" pt_clust_6="42.90039"></scales>
<clustering>
<clus scale="   42.900">  1  6  2 -1</clus>
<clus scale="   58.894">  2  3  1 -1</clus>
<clus scale="   80.231">  2  5  1 -1</clus>
<clus scale="   42.900">  1  3  2 -1</clus>
</clustering>
</event>
<event>
 6    0  0.1555973E+002  0.1535657E+03  0.7546771E-02  0.1196159E+00
         21   -1    0    0  506  501  0.00000000000E+00  0.00000000000E+00  0.17506639140E+04  0.17506639140E+04  0.00000000000E+00 0.  1.
         21   -1    0    0  505  502 -0.00000000000E+00 -0.00000000000E+00 -0.27145533064E+02  0.27145533064E+02  0.00000000000E+00 0.  1.
         21    1    1    2  503  504  0.50927467665E+02  0.48758338254E+01  0.14574109606E+03  0.15445985821E+03  0.00000000000E+00 0.  1.
         21    1    1    2  504  502  0.29777638799E+02 -0.79554404279E+02  0.14249140845E+03  0.16588976006E+03  0.00000000000E+00 0.  1.
         21    1    1    2  505  501 -0.16006151367E+03  0.66043589145E+02  0.10141718159E+04  0.10288468866E+04  0.00000000000E+00 0.  1.
         21    1    1    2  506  503  0.79356407210E+02  0.86349813090E+01  0.42111406052E+03  0.42861294222E+03  0.00000000000E+00 0.  1.
<scales pt_clust_3="30.93021" pt_clust_4="84.94475" pt_clust_5="148.62614" pt_clust_6="30.93021"></scales>
<clustering>
<clus scale="   30.930">  3  6 -1 -1</clus>
<clus scale="   84.945">  2  4  1 -1</clus>
<clus scale="  148.626">  1  5  2 -1</clus>
<clus scale="  148.626">  1  3  2 -1</clus>
</clustering>
</event>
<event>
 6    0  0.1555973E+002  0.1119353E+03  0.7546771E-02  0.1257027E+00
         21   -1    0    0  505  501  0.00000000000E+00  0.00000000000E+00  0.44173933282E+03  0.44173933282E+03  0.00000000000E+00 0. -1.
         21   -1    0    0  506  502 -0.00000000000E+00 -0.00000000000E+00 -0.11729961452E+03  0.11729961452E+03  0.00000000000E+00 0.  1.
         21    1    1    2  503  502 -0.14281944335E+02 -0.52279023078E+02 -0.82201271142E+02  0.98458718077E+02  0.00000000000E+00 0.  1.
         21    1    1    2  504  503  0.54854410419E+01  0.45169769533E+02  0.51624886234E+02  0.68815165638E+02  0.00000000000E+00 0.  1.
         21    1    1    2  505  504 -0.12436121905E+02  0.80199788301E+02  0.24416133452E+03  0.25729636696E+03  0.00000000000E+00 0. -1.
         21    1    1    2  506  501  0.21232625198E+02 -0.73090534756E+02  0.11085476869E+03  0.13446869667E+03  0.00000000000E+00 0.  1.
<scales pt_clust_3="54.19474" pt_clust_4="41.64525" pt_clust_5="41.64525" pt_clust_6="97.13966"></scales>
<clustering>
<clus scale="   41.645">  4  5 -1 -1</clus>
<clus scale="   54.195">  2  3  1 -1</clus>
<clus scale="   97.140">  1  6  2 -1</clus>
<clus scale="   97.140">  1  3  2 -1</clus>
</clustering>
</event>
<event>
 6    0  0.1555973E+002  0.1784561E+03  0.7546771E-02  0.1169306E+00
         21   -1    0    0  505  501  0.00000000000E+00  0.00000000000E+00  0.10747531961E+04  0.10747531961E+04  0.00000000000E+00 0. -1.
         21   -1    0    0  506  502 -0.00000000000E+00 -0.00000000000E+00 -0.71312222541E+02  0.71312222541E+02  0.00000000000E+00 0. -1.
         21    1    1    2  503  502  0.63841492732E+02  0.12030611994E+02  0.10018591367E+03  0.11940556568E+03  0.00000000000E+00 0. -1.
         21    1    1    2  504  503  0.21122044169E+02 -0.14828690654E+03  0.19078351913E+03  0.24255617612E+03  0.00000000000E+00 0. -1.
         21    1    1    2  505  504  0.64607238748E+02 -0.51724310468E+02  0.24359563757E+03  0.25727093546E+03  0.00000000000E+00 0. -1.
         21    1    1    2  506  501 -0.14957077565E+03  0.18798060501E+03  0.46887590318E+03  0.52683274136E+03  0.00000000000E+00 0. -1.
<scales pt_clust_3="64.96516" pt_clust_4="14000.00000" pt_clust_5="87.62171" pt_clust_6="178.45612"></scales>
<clustering>
<clus scale="   64.965">  2  3  1 -1</clus>
<clus scale="   87.622">  1  5  2 -1</clus>
<clus scale="  178.456">  1  6  2 -1</clus>
<clus scale="   87.622">  1  3  2 -1</clus>
</clustering>
</event>
<event>
 6    0  0.1555973E+002  0.9413980E+02  0.7546771E-02  0.1293125E+00
         21   -1    0    0  504  501  0.00000000000E+00  0.00000000000E+00  0.72404060966E+03  0.72404060966E+03  0.00000000000E+00 0.  1.
         21   -1    0    0  506  502 -0.00000000000E+00 -0.00000000000E+00 -0.10398780526E+04  0.10398780526E+04  0.00000000000E+00 0. -1.
         21    1    1    2  503  502  0.15573069167E+03 -0.69413340077E+02  0.41610043648E+03  0.44967747703E+03  0.00000000000E+00 0.  1.
         21    1    1    2  504  503 -0.48284315752E+02  0.39804342622E+02  0.25615011280E+03  0.26368284193E+03  0.00000000000E+00 0.  1.
         21    1    1    2  505  501 -0.15627472170E+02  0.49344129759E+02  0.59438271737E+01  0.52099809112E+02  0.00000000000E+00 0.  1.
         21    1    1    2  506  505 -0.91818903750E+02 -0.19735132304E+02 -0.99403181940E+03  0.99845853420E+03  0.00000000000E+00 0. -1.
<scales pt_clust_3="14000.00000" pt_clust_4="79.52260" pt_clust_5="51.75965" pt_clust_6="94.13980"></scales>
<clustering>
<clus scale="   51.760">  1  5  2 -1</clus>
<clus scale="   79.523">  1  4  2 -1</clus>
<clus scale="   94.140">  2  6  1 -1</clus>
<clus scale="   51.760">  1  3  2 -1</clus>
</clustering>
</event>
<event>
 6    0  0.1555973E+002  0.2077316E+03  0.7546771E-02  0.1143375E+00
         21   -1    0    0  503  501  0.00000000000E+00  0.00000000000E+00  0.17960715211E+04  0.17960715211E+04  0.00000000000E+00 0.  1.
         21   -1    0    0  506  502 -0.00000000000E+00 -0.00000000000E+00 -0.70775032999E+02  0.70775032999E+02  0.00000000000E+00 0.  1.
         21    1    1    2  503  502 -0.20159458046E+02 -0.60187751581E+02 -0.25157236760E+02  0.68277783725E+02  0.00000000000E+00 0.  1.
         21    1    1    2  504  501  0.71155789200E+02  0.11739202575E+02  0.24252770280E+03  0.25302300654E+03  0.00000000000E+00 0.  1.
         21    1    1    2  505  504  0.12676438046E+03  0.54230049624E+02  0.95011419820E+03  0.96006619358E+03  0.00000000000E+00 0.  1.
         21    1    1    2  506  505 -0.17776071161E+03 -0.57815006180E+01  0.55781182385E+03  0.58547957024E+03  0.00000000000E+00 0.  1.
<scales pt_clust_3="63.47416" pt_clust_4="54.44112" pt_clust_5="54.44112" pt_clust_6="193.61316"></scales>
<clustering>
<clus scale="   54.441">  4  5 -1 -1</clus>
<clus scale="   63.474">  2  3  1 -1</clus>
<clus scale="  193.613">  2  6  1 -1</clus>
<clus scale="  207.732">  1  3  2 -1</clus>
</clustering>
</event>
<event>
 6    0  0.1555973E+002  0.1280137E+03  0.7546771E-02  0.1230433E+00
         21   -1    0    0  505  501  0.00000000000E+00  0.00000000000E+00  0.58667776382E+03  0.58667776382E+03  0.00000000000E+00 0. -1.
         21   -1    0    0  504  502 -0.00000000000E+00 -0.00000000000E+00 -0.10862285445E+03  0.10862285445E+03  0.00000000000E+00 0. -1.
         21    1    1    2  503  501  0.45050554522E+02 -0.39556616631E+02  0.27557317703E+03  0.28201924453E+03  0.00000000000E+00 0. -1.
         21    1    1    2  504  503 -0.26917830166E+02 -0.13715801551E+03  0.13814380970E+02  0.14045543037E+03  0.00000000000E+00 0. -1.
         21    1    1    2  505  506  0.63362081468E+01  0.14328873646E+03  0.18059534131E+03  0.23062195653E+03  0.00000000000E+00 0. -1.
         21    1    1    2  506  502 -0.24468932503E+02  0.33425895678E+02  0.80720100548E+01  0.42203986850E+02  0.00000000000E+00 0. -1.
<scales pt_clust_3="58.52951" pt_clust_4="128.01365" pt_clust_5="14000.00000" pt_clust_6="41.42486"></scales>
<clustering>
<clus scale="   41.425">  2  6  1 -1</clus>
<clus scale="   58.530">  1  3  2 -1</clus>
<clus scale="  128.014">  2  4  1 -1</clus>
<clus scale="   58.530">  1  3  2 -1</clus>
</clustering>
</event>
<event>
 6    0  0.1555973E+002  0.8343170E+02  0.7546771E-02  0.1319585E+00
         21   -1    0    0  503  501  0.00000000000E+00  0.00000000000E+00  0.13702324840E+04  0.13702324840E+04  0.00000000000E+00 0.  1.
         21   -1    0    0  506  502 -0.00000000000E+00 -0.00000000000E+00 -0.88724049755E+03  0.88724049755E+03  0.00000000000E+00 0.  1.
         21    1    1    2  503  505  0.25983261266E+02 -0.81461018856E+02  0.21838755988E+03  0.23452964369E+03  0.00000000000E+00 0.  1.
         21    1    1    2  504  502  0.59979858616E+02  0.58121788704E+02 -0.87485406751E+03  0.87883181850E+03  0.00000000000E+00 0.  1.
         21    1    1    2  505  504 -0.70689394952E+02 -0.27620760645E+01  0.68351572559E+03  0.68716691332E+03  0.00000000000E+00 0.  1.
         21    1    1    2  506  501 -0.15273724930E+02  0.26101306216E+02  0.45594276849E+03  0.45694460604E+03  0.00000000000E+00 0.  1.
<scales pt_clust_3="78.20888" pt_clust_4="83.43170" pt_clust_5="14000.00000" pt_clust_6="30.24177"></scales>
<clustering>
<clus scale="   30.242">  1  6  2 -1</clus>
<clus scale="   78.209">  1  3  2 -1</clus>
<clus scale="   83.432">  2  4  1 -1</clus>
<clus scale="   30.242">  1  3  2 -1</clus>
</clustering>
</event>
<event>
 6    0  0.1555973E+002  0.1391359E+03  0.7546771E-02  0.1214496E+00
         21   -1    0    0  505  501  0.00000000000E+00  0.00000000000E+00  0.52136528706E+03  0.52136528706E+03  0.00000000000E+00 0.  1.
         21   -1    0    0  504  502 -0.00000000000E+00 -0.00000000000E+00 -0.34970325795E+03  0.34970325795E+03  0.00000000000E+00 0.  1.
         21    1    1    2  503  501 -0.13696157336E+03 -0.75777425917E+02  0.21329865724E+03  0.26456947676E+03  0.00000000000E+00 0.  1.
         21    1    1    2  504  503  0.13909236379E+03 -0.37091929517E+02  0.22469660638E+03  0.26685400844E+03  0.00000000000E+00 0.  1.
         21    1    1    2  505  506  0.27877004087E+02  0.17223759478E+02  0.18539716308E+02  0.37649785234E+02  0.00000000000E+00 0.  1.
         21    1    1    2  506  502 -0.30007794519E+02  0.95645595957E+02 -0.28487295081E+03  0.30199527457E+03  0.00000000000E+00 0.  1.
<scales pt_clust_3="14000.00000" pt_clust_4="139.13585" pt_clust_5="32.76866" pt_clust_6="100.38435"></scales>
<clustering>
<clus scale="   32.769">  1  5  2 -1</clus>
<clus scale="  100.384">  2  6  1 -1</clus>
<clus scale="  139.136">  2  4  1 -1</clus>
<clus scale="   32.769">  1  3  2 -1</clus>
</clustering>
</event>
<event>
 6    0  0.1555973E+002  0.1027860E+03  0.7546771E-02  0.1274544E+00
         21   -1    0    0  506  501  0.00000000000E+00  0.00000000000E+00  0.10326004453E+03  0.10326004453E+03  0.00000000000E+00 0. -1.
         21   -1    0    0  504  502 -0.00000000000E+00 -0.00000000000E+00 -0.61785769860E+03  0.61785769860E+03  0.00000000000E+00 0.  1.
         21    1    1    2  503  502 -0.14997151689E+01  0.37155724273E+02 -0.38380762290E+03  0.38560483450E+03  0.00000000000E+00 0.  1.
         21    1    1    2  504  501  0.10702707325E+03  0.25020578970E+01  0.47687060474E+02  0.11719688750E+03  0.00000000000E+00 0. -1.
         21    1    1    2  505  503 -0.19623752750E+02 -0.34470822991E+02 -0.55516077785E+02  0.68230229388E+02  0.00000000000E+00 0.  1.
         21    1    1    2  506  505 -0.85903605336E+02 -0.51869591788E+01 -0.12296101386E+03  0.15008579175E+03  0.00000000000E+00 0.  1.
<scales pt_clust_3="37.18598" pt_clust_4="14000.00000" pt_clust_5="31.72615" pt_clust_6="102.78598"></scales>
<clustering>
<clus scale="   37.186">  2  3  1 -1</clus>
<clus scale="   31.726">  2  5  1 -1</clus>
<clus scale="  102.786">  2  6  1 -1</clus>
<clus scale="  102.786">  1  3  2 -1</clus>
</clustering>
</event>
<event>
 6    0  0.1555973E+002  0.1227861E+03  0.7546771E-02  0.1238570E+00
         21   -1    0    0  502  501  0.00000000000E+00  0.00000000000E+00  0.98388655843E+02  0.98388655843E+02  0.00000000000E+00 0.  1.
         21   -1    0    0  503  502 -0.00000000000E+00 -0.00000000000E+00 -0.70251945431E+03  0.70251945431E+03  0.00000000000E+00 0.  1.
         21    1    1    2  503  505  0.29162152187E+02 -0.79040122950E+02 -0.42946164343E+03  0.43764720418E+03  0.00000000000E+00 0.  1.
         21    1    1    2  504  506 -0.54483263546E+02  0.71081754282E+02 -0.53817097035E+02  0.10448598821E+03  0.00000000000E+00 0.  1.
         21    1    1    2  505  504 -0.51344760494E+02  0.60177060317E+02 -0.14298725689E+03  0.16341027707E+03  0.00000000000E+00 0.  1.
         21    1    1    2  506  501  0.76665871852E+02 -0.52218691649E+02  0.22135198885E+02  0.95364640691E+02  0.00000000000E+00 0.  1.
<scales pt_clust_3="84.24828" pt_clust_4="63.79700" pt_clust_5="63.79700" pt_clust_6="102.31534"></scales>
<clustering>
<clus scale="   63.797">  4  5 -1 -1</clus>
<clus scale="   84.248">  2  3  1 -1</clus>
<clus scale="  102.315">  1  6  2 -1</clus>
<clus scale="  102.315">  1  3  2 -1</clus>
</clustering>
</event>
<event>
 6    0  0.1555973E+002  0.1039932E+03  0.7546771E-02  0.1272116E+00
         21   -1    0    0  505  501  0.00000000000E+00  0.00000000000E+00  0.24746697794E+03  0.24746697794E+03  0.00000000000E+00 0.  1.
         21   -1    0    0  504  502 -0.00000000000E+00 -0.00000000000E+00 -0.14003830621E+03  0.14003830621E+03  0.00000000000E+00 0. -1.
         21    1    1    2  503  506  0.59868472582E+01  0.40939728646E+02  0.48943125068E+02  0.64088479567E+02  0.00000000000E+00 0.  1.
         21    1    1    2  504  501  0.49929411877E+02 -0.53596091648E+02  0.10150838678E+03  0.12517763298E+03  0.00000000000E+00 0.  1.
         21    1    1    2  505  503  0.45199945362E+02  0.23307492987E+02  0.41798493793E+02  0.65828476918E+02  0.00000000000E+00 0.  1.
         21    1    1    2  506  502 -0.10111620450E+03 -0.10651129985E+02 -0.84821333914E+02  0.13241069469E+03  0.00000000000E+00 0. -1.
<scales pt_clust_3="39.28139" pt_clust_4="73.24949" pt_clust_5="39.28139" pt_clust_6="94.43518"></scales>
<clustering>
<clus scale="   39.281">  3  5 -1 -1</clus>
<clus scale="   73.249">  1  4  2 -1</clus>
<clus scale="   94.435">  2  6  1 -1</clus>
<clus scale="   73.249">  1  3  2 -1</clus>
</clustering>
</event>
<event>
 6    0  0.1555973E+002  0.1488208E+03  0.7546771E-02  0.1201930E+00
         21   -1    0    0  506  501  0.00000000000E+00  0.00000000000E+00  0.78158509542E+02  0.78158509542E+02  0.00000000000E+00 0.  1.
         21   -1    0    0  503  502 -0.00000000000E+00 -0.00000000000E+00 -0.31813639454E+04  0.31813639454E+04  0.00000000000E+00 0. -1.
         21    1    1    2  503  501 -0.22978361731E+02  0.41468594839E+02 -0.25573335601E+04  0.25577729741E+04  0.00000000000E+00 0. -1.
         21    1    1    2  504  502  0.67741639844E+02  0.95548460345E+02 -0.53606661848E+03  0.54871290990E+03  0.00000000000E+00 0. -1.
         21    1    1    2  505  504  0.38240524422E+01 -0.45070202148E+02  0.11963806450E+02  0.46787596257E+02  0.00000000000E+00 0. -1.
         21    1    1    2  506  505 -0.48587330555E+02 -0.91946853037E+02 -0.21769063667E+02  0.10624897461E+03  0.00000000000E+00 0.  1.
<scales pt_clust_3="47.40938" pt_clust_4="140.00356" pt_clust_5="33.28127" pt_clust_6="33.28127"></scales>
<clustering>
<clus scale="   33.281">  5  6 -1 -1</clus>
<clus scale="   47.409">  2  3  1 -1</clus>
<clus scale="  140.004">  2  4  1 -1</clus>
<clus scale="  148.821">  1  3  2 -1</clus>
</clustering>
</event>
<event>
 6    0  0.1555973E+002  0.1963323E+03  0.7546771E-02  0.1152871E+00
         21   -1    0    0  505  501  0.00000000000E+00  0.00000000000E+00  0.10792838272E+03  0.10792838272E+03  0.00000000000E+00 0.  1.
         21   -1    0    0  504  502 -0.00000000000E+00 -0.00000000000E+00 -0.77919559661E+03  0.77919559661E+03  0.00000000000E+00 0.  1.
         21    1    1    2  503  506 -0.65442428287E+02  0.74041546523E+02 -0.36870402930E+02  0.10547174334E+03  0.00000000000E+00 0. -1.
         21    1    1    2  504  503 -0.57680402604E+02  0.13982502818E+02 -0.23953028829E+03  0.24677377948E+03  0.00000000000E+00 0. -1.
         21    1    1    2  505  502  0.19635399350E+03 -0.13042563323E+03 -0.38258065115E+03  0.44937032746E+03  0.00000000000E+00 0.  1.
         21    1    1    2  506  501 -0.73231162613E+02  0.42401583890E+02 -0.12285871508E+02  0.85508129045E+02  0.00000000000E+00 0.  1.
<scales pt_clust_3="32.94688" pt_clust_4="59.35098" pt_clust_5="193.07706" pt_clust_6="32.94688"></scales>
<clustering>
<clus scale="   32.947">  3  6 -1 -1</clus>
<clus scale="   59.351">  2  4  1 -1</clus>
<clus scale="  193.077">  2  5  1 -1</clus>
<clus scale="  196.332">  1  3  2 -1</clus>
</clustering>
</event>
<event>
 6    0  0.1555973E+002  0.7846703E+02  0.7546771E-02  0.1333459E+00
         21   -1    0    0  504  501  0.00000000000E+00  0.00000000000E+00  0.96449010176E+02  0.96449010176E+02  0.00000000000E+00 0. -1.
         21   -1    0    0  505  502 -0.00000000000E+00 -0.00000000000E+00 -0.43804301186E+03  0.43804301186E+03  0.00000000000E+00 0. -1.
         21    1    1    2  503  501 -0.44276137100E+02 -0.27763030000E+02  0.53544349094E+02  0.74820849174E+02  0.00000000000E+00 0. -1.
         21    1    1    2  504  502 -0.35307219016E+02 -0.54920326774E+01 -0.34156995956E+02  0.49431391952E+02  0.00000000000E+00 0. -1.
         21    1    1    2  505  506  0.83162622454E+02  0.87758967442E+02 -0.31962664606E+03  0.34172920714E+03  0.00000000000E+00 0. -1.
         21    1    1    2  506  503 -0.35792663377E+01 -0.54503904764E+02 -0.41354708766E+02  0.68510573777E+02  0.00000000000E+00 0. -1.
<scales pt_clust_3="53.14329" pt_clust_4="35.73181" pt_clust_5="78.46703" pt_clust_6="14000.00000"></scales>
<clustering>
<clus scale="   35.732">  2  4  1 -1</clus>
<clus scale="   53.143">  1  3  2 -1</clus>
<clus scale="   78.467">  2  5  1 -1</clus>
<clus scale="   53.143">  1  3  2 -1</clus>
</clustering>
</event>
<event>
 6    0  0.1555973E+002  0.1491902E+03  0.7546771E-02  0.1201472E+00
         21   -1    0    0  505  501  0.00000000000E+00  0.00000000000E+00  0.31541483070E+02  0.31541483070E+02  0.00000000000E+00 0. -1.
         21   -1    0    0  504  502 -0.00000000000E+00 -0.00000000000E+00 -0.18750689687E+04  0.18750689687E+04  0.00000000000E+00 0. -1.
         21    1    1    2  503  502 -0.45910924687E+02 -0.77677512908E+01 -0.47630347831E+03  0.47857408456E+03  0.00000000000E+00 0. -1.
         21    1    1    2  504  506  0.54875106722E+02  0.11545362787E+02 -0.51241138810E+03  0.51547066201E+03  0.00000000000E+00 0. -1.
         21    1    1    2  505  503 -0.14246049381E+03 -0.63041634818E+02 -0.58915042039E+03  0.60939925982E+03  0.00000000000E+00 0. -1.
         21    1    1    2  506  501  0.13349631178E+03  0.59264023322E+02 -0.26566219884E+03  0.30316644539E+03  0.00000000000E+00 0. -1.
<scales pt_clust_3="46.56341" pt_clust_4="38.97353" pt_clust_5="14000.00000" pt_clust_6="149.19016"></scales>
<clustering>
<clus scale="   46.563">  2  3  1 -1</clus>
<clus scale="   38.974">  2  4  1 -1</clus>
<clus scale="  149.190">  1  6  2 -1</clus>
<clus scale="  149.190">  1  3  2 -1</clus>
</clustering>
</event>
<event>
 6    0  0.1555973E+002  0.1118563E+03  0.7546771E-02  0.1257170E+00
         21   -1    0    0  503  501  0.00000000000E+00  0.00000000000E+00  0.98187280451E+02  0.98187280451E+02  0.00000000000E+00 0.  1.
         21   -1    0    0  505  502 -0.00000000000E+00 -0.00000000000E+00 -0.65982607713E+03  0.65982607713E+03  0.00000000000E+00 0.  1.
         21    1    1    2  503  506  0.55374676867E+02 -0.13211992296E+03 -0.23285704993E+03  0.27339428410E+03  0.00000000000E+00 0.  1.
         21    1    1    2  504  501 -0.30371899239E+02  0.47574436326E+02  0.19293422117E+02  0.59649102190E+02  0.00000000000E+00 0.  1.
         21    1    1    2  505  504  0.90944834696E+01  0.49521080018E+02  0.19622230077E+02  0.54037754478E+02  0.00000000000E+00 0.  1.
         21    1    1    2  506  502 -0.34097261098E+02  0.35024406615E+02 -0.36769739895E+03  0.37093221681E+03  0.00000000000E+00 0.  1.
<scales pt_clust_3="104.79425" pt_clust_4="36.94359" pt_clust_5="36.94359" pt_clust_6="48.88080"></scales>
<clustering>
<clus scale="   36.944">  4  5 -1 -1</clus>
<clus scale="   48.881">  2  6  1 -1</clus>
<clus scale="  104.794">  2  3  1 -1</clus>
<clus scale="  111.856">  1  3  2 -1</clus>
</clustering>
</event>
<event>
 6    0  0.1555973E+002  0.9128644E+02  0.7546771E-02  0.1299766E+00
         21   -1    0    0  504  501  0.00000000000E+00  0.00000000000E+00  0.45041878916E+03  0.45041878916E+03  0.00000000000E+00 0.  1.
         21   -1    0    0  506  502 -0.00000000000E+00 -0.00000000000E+00 -0.12518989045E+03  0.12518989045E+03  0.00000000000E+00 0.  1.
         21    1    1    2  503  501 -0.52565704636E+02 -0.12589616601E+02  0.40567376175E+02  0.67582274005E+02  0.00000000000E+00 0.  1.
         21    1    1    2  504  502  0.25820135755E+02  0.15260090385E+03  0.22293213400E+03  0.27138985176E+03  0.00000000000E+00 0.  1.
         21    1    1    2  505  503 -0.21866060159E+02 -0.66097390894E+02  0.11422300458E+03  0.13376802475E+03  0.00000000000E+00 0.  1.
         21    1    1    2  506  505  0.48611629040E+02 -0.73913896357E+02 -0.52493616042E+02  0.10286852909E+03  0.00000000000E+00 0.  1.
<scales pt_clust_3="54.05231" pt_clust_4="14000.00000" pt_clust_5="79.82975" pt_clust_6="91.28644"></scales>
<clustering>
<clus scale="   54.052">  1  3  2 -1</clus>
<clus scale="   79.830">  1  5  2 -1</clus>
<clus scale="   91.286">  2  6  1 -1</clus>
<clus scale="   54.052">  1  3  2 -1</clus>
</clustering>
</event>
<event>
 6    0  0.1555973E+002  0.2938318E+03  0.7546771E-02  0.1088365E+00
         21   -1    0    0  503  501  0.00000000000E+00  0.00000000000E+00  0.56674461281E+03  0.56674461281E+03  0.00000000000E+00 0. -1.
         21   -1    0    0  501  502 -0.00000000000E+00 -0.00000000000E+00 -0.15712166370E+03  0.15712166370E+03  0.00000000000E+00 0. -1.
         21    1    1    2  503  506  0.41469045684E+02  0.16852211705E+02  0.58748749829E+02  0.73858610844E+02  0.00000000000E+00 0. -1.
         21    1    1    2  504  502 -0.12645127578E+03 -0.23987152847E+03  0.80919810182E+02  0.28297754504E+03  0.00000000000E+00 0. -1.
         21    1    1    2  505  504  0.99024070829E+01  0.53297136759E+02  0.24961939824E+02  0.59680322490E+02  0.00000000000E+00 0.  1.
         21    1    1    2  506  505  0.75079823016E+02  0.16972218001E+03  0.24499244927E+03  0.30734979813E+03  0.00000000000E+00 0. -1.
<scales pt_clust_3="33.55250" pt_clust_4="271.16098" pt_clust_5="41.84731" pt_clust_6="41.84731"></scales>
<clustering>
<clus scale="   33.552">  3  6 -1 -1</clus>
<clus scale="   41.847">  3  5 -1 -1</clus>
<clus scale="  271.161">  2  4  1 -1</clus>
<clus scale="  293.832">  1  3  2 -1</clus>
</clustering>
</event>
<event>
 6    0  0.1555973E+002  0.8661740E+02  0.7546771E-02  0.1311256E+00
         21   -1    0    0  505  501  0.00000000000E+00  0.00000000000E+00  0.36141800766E+02  0.36141800766E+02  0.00000000000E+00 0.  1.
         21   -1    0    0  504  502 -0.00000000000E+00 -0.00000000000E+00 -0.63038226461E+03  0.63038226461E+03  0.00000000000E+00 0.  1.
         21    1    1    2  503  502  0.80021663476E+01  0.31062479968E+02 -0.22581737934E+03  0.22808419748E+03  0.00000000000E+00 0.  1.
         21    1    1    2  504  506 -0.29808419256E+02 -0.18322136347E+02 -0.50290679251E+02  0.61264957018E+02  0.00000000000E+00 0.  1.
         21    1    1    2  505  503 -0.33863400024E+02  0.74083976435E+02 -0.66257084115E+02  0.10500079343E+03  0.00000000000E+00 0.  1.
         21    1    1    2  506  501  0.55669652932E+02 -0.86824320056E+02 -0.25187532114E+03  0.27217411745E+03  0.00000000000E+00 0.  1.
<scales pt_clust_3="32.07666" pt_clust_4="31.94649" pt_clust_5="86.61740" pt_clust_6="14000.00000"></scales>
<clustering>
<clus scale="   32.077">  2  3  1 -1</clus>
<clus scale="   31.946">  2  4  1 -1</clus>
<clus scale="   86.617">  1  5  2 -1</clus>
<clus scale="   86.617">  1  3  2 -1</clus>
</clustering>
</event>
<event>
 6    0  0.1555973E+002  0.1939848E+03  0.7546771E-02  0.1154916E+00
         21   -1    0    0  503  501  0.00000000000E+00  0.00000000000E+00  0.10970917521E+04  0.10970917521E+04  0.00000000000E+00 0. -1.
         21   -1    0    0  505  502 -0.00000000000E+00 -0.00000000000E+00 -0.30589676039E+03  0.30589676039E+03  0.00000000000E+00 0. -1.
         21    1    1    2  503  506  0.54384120890E+00  0.33388345508E+02  0.65832579346E+02  0.73817381979E+02  0.00000000000E+00 0.  1.
         21    1    1    2  504  501  0.55306611204E+02  0.87479296655E+02  0.56085943035E+03  0.57032863263E+03  0.00000000000E+00 0. -1.
         21    1    1    2  505  504  0.65152280152E+01  0.59016529004E+02  0.42892220125E+03  0.43301230193E+03  0.00000000000E+00 0. -1.
         21    1    1    2  506  502 -0.62365680428E+02 -0.17988417117E+03 -0.26441921920E+03  0.32583019598E+03  0.00000000000E+00 0. -1.
<scales pt_clust_3="33.39277" pt_clust_4="31.61638" pt_clust_5="31.61638" pt_clust_6="189.44053"></scales>
<clustering>
<clus scale="   31.616">  4  5 -1 -1</clus>
<clus scale="   33.393">  1  3  2 -1</clus>
<clus scale="  189.441">  2  6  1 -1</clus>
<clus scale="   33.393">  1  3  2 -1</clus>
</clustering>
</event>
<event>
 6    0  0.1555973E+002  0.8360740E+02  0.7546771E-02  0.1319115E+00
         21   -1    0    0  503  501  0.00000000000E+00  0.00000000000E+00  0.30915063116E+03  0.30915063116E+03  0.00000000000E+00 0.  1.
         21   -1    0    0  506  502 -0.00000000000E+00 -0.00000000000E+00 -0.62334940036E+03  0.62334940036E+03  0.00000000000E+00 0. -1.
         21    1    1    2  503  505 -0.30661016826E+02 -0.10191891196E+00  0.19582646476E+03  0.19821229185E+03  0.00000000000E+00 0.  1.
         21    1    1    2  504  502  0.28100082675E+01  0.30438528624E+02 -0.25399029200E+02  0.39743060471E+02  0.00000000000E+00 0. -1.
         21    1    1    2  505  504  0.66087674125E+02  0.73066943249E+02  0.75215846452E+02  0.12395072579E+03  0.00000000000E+00 0.  1.
         21    1    1    2  506  501 -0.38236665566E+02 -0.10340355296E+03 -0.55984205121E+03  0.57059395340E+03  0.00000000000E+00 0. -1.
<scales pt_clust_3="30.65537" pt_clust_4="30.56796" pt_clust_5="83.60740" pt_clust_6="14000.00000"></scales>
<clustering>
<clus scale="   30.568">  2  4  1 -1</clus>
<clus scale="   30.655">  1  3  2 -1</clus>
<clus scale="   83.607">  1  5  2 -1</clus>
<clus scale="   30.655">  1  3  2 -1</clus>
</clustering>
</event>
<event>
 6    0  0.1555973E+002  0.1106166E+03  0.7546771E-02  0.1259432E+00
         21   -1    0    0  503  501  0.00000000000E+00  0.00000000000E+00  0.15582350702E+04  0.15582350702E+04  0.00000000000E+00 0.  1.
         21   -1    0    0  506  502 -0.00000000000E+00 -0.00000000000E+00 -0.14072316153E+04  0.14072316153E+04  0.00000000000E+00 0.  1.
         21    1    1    2  503  505 -0.30337728687E+02 -0.34724503534E+01  0.35926064798E+01  0.30746422794E+02  0.00000000000E+00 0.  1.
         21    1    1    2  504  501 -0.17272750405E+02 -0.14646744973E+03  0.15032294802E+04  0.15104469312E+04  0.00000000000E+00 0.  1.
         21    1    1    2  505  502 -0.75555732388E+01  0.54103846355E+02  0.86688802389E+01  0.55312406945E+02  0.00000000000E+00 0.  1.
         21    1    1    2  506  504  0.55166052331E+02  0.95836053728E+02 -0.13644875120E+04  0.13689609246E+04  0.00000000000E+00 0.  1.
<scales pt_clust_3="30.53581" pt_clust_4="110.61663" pt_clust_5="54.64825" pt_clust_6="14000.00000"></scales>
<clustering>
<clus scale="   30.536">  1  3  2 -1</clus>
<clus scale="   54.648">  1  5  2 -1</clus>
<clus scale="  110.617">  1  4  2 -1</clus>
<clus scale="   30.536">  1  3  2 -1</clus>
</clustering>
</event>
<event>
 6    0  0.1555973E+002  0.2501487E+03  0.7546771E-02  0.1113211E+00
         21   -1    0    0  504  501  0.00000000000E+00  0.00000000000E+00  0.89703101164E+03  0.89703101164E+03  0.00000000000E+00 0. -1.
         21   -1    0    0  505  502 -0.00000000000E+00 -0.00000000000E+00 -0.12060217832E+04  0.12060217832E+04  0.00000000000E+00 0. -1.
         21    1    1    2  503  501  0.92370132241E+02  0.11313173637E+03  0.57404774825E+03  0.59233592528E+03  0.00000000000E+00 0. -1.
         21    1    1    2  504  502 -0.18852205680E+02 -0.12496307782E+03 -0.10709495405E+04  0.10783803109E+04  0.00000000000E+00 0. -1.
         21    1    1    2  505  506 -0.16883619926E+03 -0.38786647554E+02 -0.42089204439E+02  0.17827385490E+03  0.00000000000E+00 0.  1.
         21    1    1    2  506  503  0.95318272702E+02  0.50617989003E+02  0.23000022513E+03  0.25406270384E+03  0.00000000000E+00 0. -1.
<scales pt_clust_3="76.19466" pt_clust_4="126.37712" pt_clust_5="233.91837" pt_clust_6="76.19466"></scales>
<clustering>
<clus scale="   76.195">  3  6 -1 -1</clus>
<clus scale="  126.377">  2  4  1 -1</clus>
<clus scale="  233.918">  2  5  1 -1</clus>
<clus scale="  250.149">  1  3  2 -1</clus>
</clustering>
</event>
<event>
 6    0  0.1555973E+002  0.6909096E+02  0.7546771E-02  0.1363212E+00
         21   -1    0    0  505  501  0.00000000000E+00  0.00000000000E+00  0.61441704363E+02  0.61441704363E+02  0.00000000000E+00 0.  1.
         21   -1    0    0  506  502 -0.00000000000E+00 -0.00000000000E+00 -0.38086035894E+03  0.38086035894E+03  0.00000000000E+00 0.  1.
         21    1    1    2  503  501  0.21905614286E+02 -0.54448941062E+02 -0.26446719850E+01  0.58749786467E+02  0.00000000000E+00 0.  1.
         21    1    1    2  504  503  0.62587453323E+02 -0.18222151413E+02 -0.39381482055E+02  0.76158632107E+02  0.00000000000E+00 0.  1.
         21    1    1    2  505  502 -0.22880672941E+02  0.66252527923E+02 -0.15935791158E+03  0.17409154671E+03  0.00000000000E+00 0.  1.
         21    1    1    2  506  504 -0.61612394668E+02  0.64185645526E+01 -0.11803458896E+03  0.13330209802E+03  0.00000000000E+00 0. -1.
<scales pt_clust_3="58.69023" pt_clust_4="69.09096" pt_clust_5="14000.00000" pt_clust_6="56.92441"></scales>
<clustering>
<clus scale="   58.690">  1  3  2 -1</clus>
<clus scale="   56.924">  2  6  1 -1</clus>
<clus scale="   69.091">  1  4  2 -1</clus>
<clus scale="   58.690">  1  3  2 -1</clus>
</clustering>
</event>
<event>
 6    0  0.1555973E+002  0.6943605E+02  0.7546771E-02  0.1362021E+00
         21   -1    0    0  503  501  0.00000000000E+00  0.00000000000E+00  0.18808883755E+03  0.18808883755E+03  0.00000000000E+00 0.  1.
         21   -1    0    0  504  502 -0.00000000000E+00 -0.00000000000E+00 -0.24173335113E+03  0.24173335113E+03  0.00000000000E+00 0.  1.
         21    1    1    2  503  505  0.37404085457E+02  0.77963700702E+01  0.22366930859E+02  0.44273339508E+02  0.00000000000E+00 0. -1.
         21    1    1    2  504  506  0.36696204493E+02 -0.58259570519E+02 -0.17388387259E+03  0.18701975865E+03  0.00000000000E+00 0.  1.
         21    1    1    2  505  502 -0.93784815617E+02 -0.20744924180E+02  0.72760327716E+02  0.12049899920E+03  0.00000000000E+00 0.  1.
         21    1    1    2  506  501  0.19684525667E+02  0.71208124629E+02  0.25112100427E+02  0.78030091322E+02  0.00000000000E+00 0.  1.
<scales pt_clust_3="38.20797" pt_clust_4="69.43605" pt_clust_5="14000.00000" pt_clust_6="67.51699"></scales>
<clustering>
<clus scale="   38.208">  1  3  2 -1</clus>
<clus scale="   69.436">  2  4  1 -1</clus>
<clus scale="   67.517">  2  6  1 -1</clus>
<clus scale="   38.208">  1  3  2 -1</clus>
</clustering>
</event>
<event>
 6    0  0.1555973E+002  0.1263128E+03  0.7546771E-02  0.1233032E+00
         21   -1    0    0  504  501  0.00000000000E+00  0.00000000000E+00  0.12308613857E+04  0.12308613857E+04  0.00000000000E+00 0. -1.
         21   -1    0    0  503  502 -0.00000000000E+00 -0.00000000000E+00 -0.22553331284E+03  0.22553331284E+03  0.00000000000E+00 0. -1.
         21    1    1    2  503  505 -0.38405410218E+02 -0.74622406013E+02 -0.18575888487E+03  0.20383778433E+03  0.00000000000E+00 0. -1.
         21    1    1    2  504  502  0.76528522450E+02 -0.12220897708E+03  0.67646217004E+03  0.69165939329E+03  0.00000000000E+00 0. -1.
         21    1    1    2  505  506 -0.51123013778E+02  0.13986649151E+03  0.25973846805E+03  0.29939984931E+03  0.00000000000E+00 0. -1.
         21    1    1    2  506  501  0.12999901547E+02  0.56964891588E+02  0.25488631963E+03  0.26149767159E+03  0.00000000000E+00 0. -1.
<scales pt_clust_3="83.39954" pt_clust_4="126.31285" pt_clust_5="14000.00000" pt_clust_6="58.42941"></scales>
<clustering>
<clus scale="   58.429">  1  6  2 -1</clus>
<clus scale="   83.400">  2  3  1 -1</clus>
<clus scale="  126.313">  1  4  2 -1</clus>
<clus scale="   58.429">  1  3  2 -1</clus>
</clustering>
</event>
<event>
 6    0  0.1617418E+002  0.1710829E+03  0.7546771E-02  0.1176723E+00
         21   -1    0    0  503  501  0.00000000000E+00  0.00000000000E+00  0.44641046291E+03  0.44641046291E+03  0.00000000000E+00 0. -1.
         21   -1    0    0  504  502 -0.00000000000E+00 -0.00000000000E+00 -0.87820955926E+03  0.87820955926E+03  0.00000000000E+00 0.  1.
         21    1    1    2  503  505 -0.16194536130E+03 -0.36431917482E+02  0.37210628367E+03  0.40745143392E+03  0.00000000000E+00 0. -1.
         21    1    1    2  504  501 -0.38777636651E+02  0.22575497516E+02  0.59939419655E+00  0.44874463403E+02  0.00000000000E+00 0. -1.
         21    1    1    2  505  506  0.10817083623E+03  0.28787074885E+02 -0.70413827846E+02  0.13224119117E+03  0.00000000000E+00 0. -1.
         21    1    1    2  506  502  0.92552161722E+02 -0.14930654918E+02 -0.73409094637E+03  0.74005293367E+03  0.00000000000E+00 0.  1.
<scales pt_clust_3="14000.00000" pt_clust_4="44.87046" pt_clust_5="171.08292" pt_clust_6="93.45416"></scales>
<clustering>
<clus scale="   44.870">  1  4  2 -1</clus>
<clus scale="   93.454">  2  6  1 -1</clus>
<clus scale="  171.083">  2  5  1 -1</clus>
<clus scale="   44.870">  1  3  2 -1</clus>
</clustering>
</event>
<event>
 6    0  0.1555973E+002  0.3081573E+03  0.7546771E-02  0.1081232E+00
         21   -1    0    0  502  501  0.00000000000E+00  0.00000000000E+00  0.16060611081E+04  0.16060611081E+04  0.00000000000E+00 0.  1.
         21   -1    0    0  503  502 -0.00000000000E+00 -0.00000000000E+00 -0.26101292010E+03  0.26101292010E+03  0.00000000000E+00 0.  1.
         21    1    1    2  503  504  0.15710772799E+03 -0.57209840023E+02 -0.14510497029E+03  0.22138486035E+03  0.00000000000E+00 0.  1.
         21    1    1    2  504  506  0.17197632629E+03 -0.57826913683E+02  0.92430737808E+02  0.20362526867E+03  0.00000000000E+00 0.  1.
         21    1    1    2  505  501 -0.20938352563E+03  0.39902751617E+02  0.87256370576E+03  0.89822108137E+03  0.00000000000E+00 0.  1.
         21    1    1    2  506  505 -0.11970052865E+03  0.75134002090E+02  0.52515871471E+03  0.54384281780E+03  0.00000000000E+00 0.  1.
<scales pt_clust_3="167.19989" pt_clust_4="300.94910" pt_clust_5="53.95452" pt_clust_6="53.95452"></scales>
<clustering>
<clus scale="   53.955">  5  6 -1 -1</clus>
<clus scale="  167.200">  2  3  1 -1</clus>
<clus scale="  300.949">  2  4  1 -1</clus>
<clus scale="  308.157">  1  3  2 -1</clus>
</clustering>
</event>
<event>
 6    0  0.1555973E+002  0.9871332E+02  0.7546771E-02  0.1283025E+00
         21   -1    0    0  505  501  0.00000000000E+00  0.00000000000E+00  0.32475655670E+03  0.32475655670E+03  0.00000000000E+00 0. -1.
         21   -1    0    0  503  502 -0.00000000000E+00 -0.00000000000E+00 -0.12879857814E+03  0.12879857814E+03  0.00000000000E+00 0.  1.
         21    1    1    2  503  506 -0.85490328786E+02 -0.66712243600E+01 -0.79696203082E+02  0.11706658933E+03  0.00000000000E+00 0.  1.
         21    1    1    2  504  501  0.78701892632E+02  0.33489481885E+02  0.13956024503E+03  0.16368443815E+03  0.00000000000E+00 0. -1.
         21    1    1    2  505  502 -0.70595654310E+01 -0.59181289737E+02  0.43622642826E+02  0.73859308731E+02  0.00000000000E+00 0.  1.
         21    1    1    2  506  504  0.13848001586E+02  0.32363032212E+02  0.92471293783E+02  0.98944798629E+02  0.00000000000E+00 0. -1.
<scales pt_clust_3="86.66531" pt_clust_4="30.31835" pt_clust_5="59.60086" pt_clust_6="30.31835"></scales>
<clustering>
<clus scale="   30.318">  4  6 -1 -1</clus>
<clus scale="   59.601">  1  5  2 -1</clus>
<clus scale="   86.665">  2  3  1 -1</clus>
<clus scale="   59.601">  1  3  2 -1</clus>
</clustering>
</event>
<event>
 6    0  0.1555973E+002  0.1526072E+03  0.7546771E-02  0.1197305E+00
         21   -1    0    0  506  501  0.00000000000E+00  0.00000000000E+00  0.67999064338E+02  0.67999064338E+02  0.00000000000E+00 0.  1.
         21   -1    0    0  504  502 -0.00000000000E+00 -0.00000000000E+00 -0.21616350524E+04  0.21616350524E+04  0.00000000000E+00 0.  1.
         21    1    1    2  503  501 -0.41670032101E+02 -0.84898159277E+02 -0.20118447298E+03  0.22230447857E+03  0.00000000000E+00 0.  1.
         21    1    1    2  504  505 -0.67165912648E+02  0.85523954566E+02 -0.15675269966E+04  0.15712945274E+04  0.00000000000E+00 0.  1.
         21    1    1    2  505  503  0.48775055143E+02 -0.99598936856E+02 -0.29687713876E+03  0.31691479887E+03  0.00000000000E+00 0. -1.
         21    1    1    2  506  502  0.60060889605E+02  0.98973141567E+02 -0.28047379747E+02  0.11912031196E+03  0.00000000000E+00 0.  1.
<scales pt_clust_3="85.64989" pt_clust_4="108.74561" pt_clust_5="85.64989" pt_clust_6="121.18805"></scales>
<clustering>
<clus scale="   85.650">  3  5 -1 -1</clus>
<clus scale="  108.746">  2  4  1 -1</clus>
<clus scale="  121.188">  1  6  2 -1</clus>
<clus scale="  121.188">  1  3  2 -1</clus>
</clustering>
</event>
<event>
 6    0  0.1555973E+002  0.1521259E+03  0.7546771E-02  0.1197885E+00
         21   -1    0    0  502  501  0.00000000000E+00  0.00000000000E+00  0.64475530956E+03  0.64475530956E+03  0.00000000000E+00 0. -1.
         21   -1    0    0  505  502 -0.00000000000E+00 -0.00000000000E+00 -0.26723956393E+03  0.26723956393E+03  0.00000000000E+00 0. -1.
         21    1    1    2  503  504  0.14236283222E+02  0.12033112524E+03 -0.51727126163E+02  0.13174956183E+03  0.00000000000E+00 0. -1.
         21    1    1    2  504  506  0.99835695372E+01 -0.16366181351E+03  0.47986609630E+03  0.50710583830E+03  0.00000000000E+00 0. -1.
         21    1    1    2  505  503  0.55955441050E+01  0.35054664657E+02 -0.15771831852E+03  0.16166387235E+03  0.00000000000E+00 0. -1.
         21    1    1    2  506  501 -0.29815396864E+02  0.82760236089E+01  0.10709509402E+03  0.11147560101E+03  0.00000000000E+00 0. -1.
<scales pt_clust_3="152.12587" pt_clust_4="14000.00000" pt_clust_5="35.51142" pt_clust_6="30.94270"></scales>
<clustering>
<clus scale="   30.943">  1  6  2 -1</clus>
<clus scale="   35.511">  2  5  1 -1</clus>
<clus scale="  152.126">  2  3  1 -1</clus>
<clus scale="   30.943">  1  3  2 -1</clus>
</clustering>
</event>
<event>
 6    0  0.1555973E+002  0.1019600E+03  0.7546771E-02  0.1276228E+00
         21   -1    0    0  505  501  0.00000000000E+00  0.00000000000E+00  0.19287419176E+03  0.19287419176E+03  0.00000000000E+00 0.  1.
         21   -1    0    0  503  502 -0.00000000000E+00 -0.00000000000E+00 -0.54509183542E+03  0.54509183542E+03  0.00000000000E+00 0. -1.
         21    1    1    2  503  506 -0.26938981369E+02 -0.70790013304E+02 -0.13514959196E+02  0.76938864190E+02  0.00000000000E+00 0.  1.
         21    1    1    2  504  502  0.55478536694E+02  0.91680382083E+02 -0.46933019425E+03  0.48140834198E+03  0.00000000000E+00 0. -1.
         21    1    1    2  505  504  0.97213406303E+01  0.37904365850E+02  0.10509316281E+02  0.40517787980E+02  0.00000000000E+00 0.  1.
         21    1    1    2  506  501 -0.38260895955E+02 -0.58794734628E+02  0.12011819350E+03  0.13910103303E+03  0.00000000000E+00 0.  1.
<scales pt_clust_3="14000.00000" pt_clust_4="101.95995" pt_clust_5="39.13113" pt_clust_6="42.55834"></scales>
<clustering>
<clus scale="   39.131">  1  5  2 -1</clus>
<clus scale="   42.558">  1  6  2 -1</clus>
<clus scale="  101.960">  2  4  1 -1</clus>
<clus scale="   39.131">  1  3  2 -1</clus>
</clustering>
</event>
<event>
 6    0  0.1555973E+002  0.1370353E+03  0.7546771E-02  0.1217375E+00
         21   -1    0    0  503  501  0.00000000000E+00  0.00000000000E+00  0.10809518812E+04  0.10809518812E+04  0.00000000000E+00 0. -1.
         21   -1    0    0  501  502 -0.00000000000E+00 -0.00000000000E+00 -0.44815089872E+02  0.44815089872E+02  0.00000000000E+00 0. -1.
         21    1    1    2  503  506 -0.25097486544E+02  0.28715629071E+02  0.60875449607E+03  0.60994795488E+03  0.00000000000E+00 0. -1.
         21    1    1    2  504  502  0.12915839014E+02 -0.13569942048E+03  0.10457191774E+03  0.17180348540E+03  0.00000000000E+00 0. -1.
         21    1    1    2  505  504 -0.11331313055E+02  0.82844558225E+02  0.25376106611E+03  0.26718214416E+03  0.00000000000E+00 0. -1.
         21    1    1    2  506  505  0.23512960585E+02  0.24139233187E+02  0.69049311396E+02  0.76833386614E+02  0.00000000000E+00 0. -1.
<scales pt_clust_3="38.13753" pt_clust_4="127.40667" pt_clust_5="32.03364" pt_clust_6="32.03364"></scales>
<clustering>
<clus scale="   32.034">  5  6 -1 -1</clus>
<clus scale="   38.138">  1  3  2 -1</clus>
<clus scale="  127.407">  2  4  1 -1</clus>
<clus scale="   38.138">  1  3  2 -1</clus>
</clustering>
</event>
<event>
 6    0  0.1555973E+002  0.8869937E+02  0.7546771E-02  0.1306032E+00
         21   -1    0    0  505  501  0.00000000000E+00  0.00000000000E+00  0.99354786618E+02  0.99354786618E+02  0.00000000000E+00 0. -1.
         21   -1    0    0  506  502 -0.00000000000E+00 -0.00000000000E+00 -0.73297502233E+03  0.73297502233E+03  0.00000000000E+00 0.  1.
         21    1    1    2  503  502  0.33682653828E+02 -0.33208034991E+02 -0.57372465758E+03  0.57567115393E+03  0.00000000000E+00 0.  1.
         21    1    1    2  504  501 -0.44536418738E+02 -0.33127617715E+02  0.57518611558E+01  0.55803365098E+02  0.00000000000E+00 0. -1.
         21    1    1    2  505  503  0.90118112772E+02  0.40716379054E+02 -0.63508082690E+02  0.11752605813E+03  0.00000000000E+00 0.  1.
         21    1    1    2  506  504 -0.79264347862E+02  0.25619273652E+02 -0.21393566050E+01  0.83329231792E+02  0.00000000000E+00 0. -1.
<scales pt_clust_3="47.30005" pt_clust_4="54.86686" pt_clust_5="88.69937" pt_clust_6="14000.00000"></scales>
<clustering>
<clus scale="   47.300">  2  3  1 -1</clus>
<clus scale="   54.867">  1  4  2 -1</clus>
<clus scale="   88.699">  1  5  2 -1</clus>
<clus scale="   54.867">  1  3  2 -1</clus>
</clustering>
</event>
<event>
 6    0  0.1555973E+002  0.9701479E+02  0.7546771E-02  0.1286702E+00
         21   -1    0    0  504  501  0.00000000000E+00  0.00000000000E+00  0.35270490537E+02  0.35270490537E+02  0.00000000000E+00 0.  1.
         21   -1    0    0  503  502 -0.00000000000E+00 -0.00000000000E+00 -0.15878379725E+04  0.15878379725E+04  0.00000000000E+00 0.  1.
         21    1    1    2  503  506  0.10203652815E+03  0.84095186451E+02 -0.33642816655E+03  0.36147941119E+03  0.00000000000E+00 0.  1.
         21    1    1    2  504  505 -0.28049973695E+02 -0.79354846248E+02 -0.20246707068E+03  0.21926446898E+03  0.00000000000E+00 0.  1.
         21    1    1    2  505  502 -0.37382566316E+02 -0.50181657235E+02 -0.96315199646E+03  0.96518258546E+03  0.00000000000E+00 0.  1.
         21    1    1    2  506  501 -0.36603988142E+02  0.45441317033E+02 -0.50520248316E+02  0.77181997457E+02  0.00000000000E+00 0.  1.
<scales pt_clust_3="14000.00000" pt_clust_4="97.01479" pt_clust_5="61.95596" pt_clust_6="58.35037"></scales>
<clustering>
<clus scale="   58.350">  1  6  2 -1</clus>
<clus scale="   61.956">  2  5  1 -1</clus>
<clus scale="   97.015">  1  4  2 -1</clus>
<clus scale="   58.350">  1  3  2 -1</clus>
</clustering>
</event>
<event>
 6    0  0.1555973E+002  0.1782085E+03  0.7546771E-02  0.1169548E+00
         21   -1    0    0  503  501  0.00000000000E+00  0.00000000000E+00  0.10663675838E+03  0.10663675838E+03  0.00000000000E+00 0. -1.
         21   -1    0    0  506  502 -0.00000000000E+00 -0.00000000000E+00 -0.16954717517E+04  0.16954717517E+04  0.00000000000E+00 0.  1.
         21    1    1    2  503  504 -0.30120442370E+02  0.42759060759E+01  0.29897481922E+01  0.30568987807E+02  0.00000000000E+00 0. -1.
         21    1    1    2  504  505 -0.59896843279E+02 -0.57728576373E+01 -0.98401119592E+02  0.11534183134E+03  0.00000000000E+00 0. -1.
         21    1    1    2  505  502  0.13623140560E+03 -0.12162732420E+03 -0.15123450307E+04  0.15233317740E+04  0.00000000000E+00 0.  1.
         21    1    1    2  506  501 -0.46214119957E+02  0.12312427576E+03  0.18921408791E+02  0.13286591691E+03  0.00000000000E+00 0. -1.
<scales pt_clust_3="30.42243" pt_clust_4="62.96552" pt_clust_5="14000.00000" pt_clust_6="178.20846"></scales>
<clustering>
<clus scale="   30.422">  1  3  2 -1</clus>
<clus scale="   62.966">  1  4  2 -1</clus>
<clus scale="  178.208">  1  6  2 -1</clus>
<clus scale="   30.422">  1  3  2 -1</clus>
</clustering>
</event>
<event>
 6    0  0.1555973E+002  0.2218731E+03  0.7546771E-02  0.1132494E+00
         21   -1    0    0  505  501  0.00000000000E+00  0.00000000000E+00  0.92832814772E+02  0.92832814772E+02  0.00000000000E+00 0.  1.
         21   -1    0    0  504  502 -0.00000000000E+00 -0.00000000000E+00 -0.92929013725E+03  0.92929013725E+03  0.00000000000E+00 0.  1.
         21    1    1    2  503  502  0.13601146837E+03  0.80277573649E+02 -0.71374273254E+02  0.17331444037E+03  0.00000000000E+00 0.  1.
         21    1    1    2  504  506 -0.37654316401E+02  0.23739262321E+02 -0.35899118684E+03  0.36174033829E+03  0.00000000000E+00 0.  1.
         21    1    1    2  505  503  0.49007526974E+02  0.38704682801E+02 -0.75290120758E+02  0.97818160147E+02  0.00000000000E+00 0. -1.
         21    1    1    2  506  501 -0.14736467894E+03 -0.14272151877E+03 -0.33080174163E+03  0.38925001321E+03  0.00000000000E+00 0.  1.
<scales pt_clust_3="37.80008" pt_clust_4="44.51292" pt_clust_5="37.80008" pt_clust_6="213.57447"></scales>
<clustering>
<clus scale="   37.800">  3  5 -1 -1</clus>
<clus scale="   44.513">  2  4  1 -1</clus>
<clus scale="  213.574">  2  6  1 -1</clus>
<clus scale="  221.873">  1  3  2 -1</clus>
</clustering>
</event>
<event>
 6    0  0.1555973E+002  0.1344788E+03  0.7546771E-02  0.1220957E+00
         21   -1    0    0  504  501  0.00000000000E+00  0.00000000000E+00  0.21639183679E+03  0.21639183679E+03  0.00000000000E+00 0.  1.
         21   -1    0    0  505  502 -0.00000000000E+00 -0.00000000000E+00 -0.21014789313E+03  0.21014789313E+03  0.00000000000E+00 0.  1.
         21    1    1    2  503  502  0.70132186940E+01  0.58286010007E+02 -0.63900379865E+02  0.86773859807E+02  0.00000000000E+00 0.  1.
         21    1    1    2  504  503  0.61117297193E+02  0.97264356630E+02  0.30707061038E+02  0.11890585639E+03  0.00000000000E+00 0.  1.
         21    1    1    2  505  506 -0.32976905781E+02  0.36434841264E+01 -0.28984442402E+02  0.44055070001E+02  0.00000000000E+00 0.  1.
         21    1    1    2  506  501 -0.35153610106E+02 -0.15919385076E+03  0.68421704885E+02  0.17680494372E+03  0.00000000000E+00 0.  1.
<scales pt_clust_3="60.30979" pt_clust_4="134.47884" pt_clust_5="33.17757" pt_clust_6="14000.00000"></scales>
<clustering>
<clus scale="   33.178">  2  5  1 -1</clus>
<clus scale="   60.310">  2  3  1 -1</clus>
<clus scale="  134.479">  1  4  2 -1</clus>
<clus scale="  134.479">  1  3  2 -1</clus>
</clustering>
</event>
<event>
 6    0  0.1555973E+002  0.1277961E+03  0.7546771E-02  0.1230763E+00
         21   -1    0    0  506  501  0.00000000000E+00  0.00000000000E+00  0.14885007121E+02  0.14885007121E+02  0.00000000000E+00 0. -1.
         21   -1    0    0  504  502 -0.00000000000E+00 -0.00000000000E+00 -0.19287836752E+04  0.19287836752E+04  0.00000000000E+00 0. -1.
         21    1    1    2  503  505  0.62560068989E+01  0.50364037400E+02 -0.14817003274E+03  0.15662066431E+03  0.00000000000E+00 0. -1.
         21    1    1    2  504  503  0.21662586320E+02 -0.11389354542E+03 -0.13675858145E+04  0.13724911539E+04  0.00000000000E+00 0. -1.
         21    1    1    2  505  501 -0.57288706200E+02  0.51918512975E+02 -0.20996498565E+03  0.22374723026E+03  0.00000000000E+00 0. -1.
         21    1    1    2  506  502  0.29370112981E+02  0.11610995042E+02 -0.18817783512E+03  0.19080963386E+03  0.00000000000E+00 0.  1.
<scales pt_clust_3="48.06818" pt_clust_4="113.92481" pt_clust_5="48.06818" pt_clust_6="31.58194"></scales>
<clustering>
<clus scale="   31.582">  2  6  1 -1</clus>
<clus scale="   48.068">  3  5 -1 -1</clus>
<clus scale="  113.925">  2  4  1 -1</clus>
<clus scale="  127.796">  1  3  2 -1</clus>
</clustering>
</event>
<event>
 6    0  0.1555973E+002  0.1209439E+03  0.7546771E-02  0.1241548E+00
         21   -1    0    0  504  501  0.00000000000E+00  0.00000000000E+00  0.28880192955E+03  0.28880192955E+03  0.00000000000E+00 0. -1.
         21   -1    0    0  503  502 -0.00000000000E+00 -0.00000000000E+00 -0.32452610732E+03  0.32452610732E+03  0.00000000000E+00 0. -1.
         21    1    1    2  503  501 -0.95892183691E+02 -0.88500653074E+02  0.40621186174E+02  0.13666659158E+03  0.00000000000E+00 0. -1.
         21    1    1    2  504  505  0.12194585459E+03  0.19186376486E+02  0.17211976087E+03  0.21181152135E+03  0.00000000000E+00 0. -1.
         21    1    1    2  505  506 -0.29351751315E+01  0.42905458415E+02 -0.64208195937E+02  0.77279920033E+02  0.00000000000E+00 0. -1.
         21    1    1    2  506  502 -0.23118495765E+02  0.26408818173E+02 -0.18425692888E+03  0.18757000390E+03  0.00000000000E+00 0. -1.
<scales pt_clust_3="120.94394" pt_clust_4="14000.00000" pt_clust_5="58.27717" pt_clust_6="35.09830"></scales>
<clustering>
<clus scale="   35.098">  2  6  1 -1</clus>
<clus scale="   58.277">  2  5  1 -1</clus>
<clus scale="  120.944">  2  3  1 -1</clus>
<clus scale="  120.944">  1  3  2 -1</clus>
</clustering>
</event>
<event>
 6    0  0.1555973E+002  0.8197096E+02  0.7546771E-02  0.1323549E+00
         21   -1    0    0  506  501  0.00000000000E+00  0.00000000000E+00  0.31343178455E+03  0.31343178455E+03  0.00000000000E+00 0.  1.
         21   -1    0    0  505  502 -0.00000000000E+00 -0.00000000000E+00 -0.52613416587E+03  0.52613416587E+03  0.00000000000E+00 0.  1.
         21    1    1    2  503  501  0.75416205842E+02 -0.59938036261E+02  0.18073590375E+02  0.98014422222E+02  0.00000000000E+00 0. -1.
         21    1    1    2  504  502 -0.57851650591E+02 -0.61174859646E+02  0.18719945386E+03  0.20526278877E+03  0.00000000000E+00 0.  1.
         21    1    1    2  505  503  0.24578319646E+01  0.83346168909E+02 -0.46518696352E+03  0.47260082082E+03  0.00000000000E+00 0.  1.
         21    1    1    2  506  504 -0.20022387216E+02  0.37766726998E+02  0.47211537978E+02  0.63687918605E+02  0.00000000000E+00 0. -1.
<scales pt_clust_3="81.97096" pt_clust_4="79.96107" pt_clust_5="14000.00000" pt_clust_6="42.74601"></scales>
<clustering>
<clus scale="   42.746">  1  6  2 -1</clus>
<clus scale="   79.961">  1  4  2 -1</clus>
<clus scale="   81.971">  1  3  2 -1</clus>
<clus scale="   42.746">  1  3  2 -1</clus>
</clustering>
</event>
<event>
 6    0  0.1555973E+002  0.7076301E+02  0.7546771E-02  0.1357517E+00
         21   -1    0    0  504  501  0.00000000000E+00  0.00000000000E+00  0.30952566807E+03  0.30952566807E+03  0.00000000000E+00 0.  1.
         21   -1    0    0  506  502 -0.00000000000E+00 -0.00000000000E+00 -0.16212717694E+03  0.16212717694E+03  0.00000000000E+00 0.  1.
         21    1    1    2  503  501  0.31576882487E+02 -0.36610692925E+02  0.72805847190E+02  0.87396417141E+02  0.00000000000E+00 0.  1.
         21    1    1    2  504  502 -0.18733724433E+01  0.53165880417E+02  0.13984771574E+02  0.55006310554E+02  0.00000000000E+00 0.  1.
         21    1    1    2  505  503 -0.78956667544E+02  0.33585103050E+02  0.17505044397E+03  0.19494812754E+03  0.00000000000E+00 0.  1.
         21    1    1    2  506  505  0.49253157500E+02 -0.50140290541E+02 -0.11444257161E+03  0.13430198977E+03  0.00000000000E+00 0.  1.
<scales pt_clust_3="48.34710" pt_clust_4="47.74781" pt_clust_5="70.76301" pt_clust_6="14000.00000"></scales>
<clustering>
<clus scale="   48.347">  1  3  2 -1</clus>
<clus scale="   47.748">  1  4  2 -1</clus>
<clus scale="   70.763">  1  5  2 -1</clus>
<clus scale="   48.347">  1  3  2 -1</clus>
</clustering>
</event>
<event>
 6    0  0.1555973E+002  0.8286380E+02  0.7546771E-02  0.1321115E+00
         21   -1    0    0  504  501  0.00000000000E+00  0.00000000000E+00  0.12436322275E+03  0.12436322275E+03  0.00000000000E+00 0.  1.
         21   -1    0    0  503  502 -0.00000000000E+00 -0.00000000000E+00 -0.17847258030E+04  0.17847258030E+04  0.00000000000E+00 0. -1.
         21    1    1    2  503  506  0.99509807982E+02 -0.62456442555E+02 -0.73635024758E+02  0.13865470051E+03  0.00000000000E+00 0. -1.
         21    1    1    2  504  505 -0.17452270950E+02  0.61303039496E+02  0.69217086288E+02  0.94093833204E+02  0.00000000000E+00 0.  1.
         21    1    1    2  505  502 -0.43415857120E+02  0.11665604307E+02 -0.16252818483E+04  0.16259034748E+04  0.00000000000E+00 0. -1.
         21    1    1    2  506  501 -0.38641679912E+02 -0.10512201248E+02 -0.30662793433E+02  0.50437017186E+02  0.00000000000E+00 0. -1.
<scales pt_clust_3="82.86380" pt_clust_4="14000.00000" pt_clust_5="45.04974" pt_clust_6="40.04605"></scales>
<clustering>
<clus scale="   40.046">  1  6  2 -1</clus>
<clus scale="   45.050">  2  5  1 -1</clus>
<clus scale="   82.864">  2  3  1 -1</clus>
<clus scale="   40.046">  1  3  2 -1</clus>
</clustering>
</event>
<event>
 6    0  0.1555973E+002  0.1050226E+03  0.7546771E-02  0.1270075E+00
         21   -1    0    0  506  501  0.00000000000E+00  0.00000000000E+00  0.26385843271E+04  0.26385843271E+04  0.00000000000E+00 0.  1.
         21   -1    0    0  504  502 -0.00000000000E+00 -0.00000000000E+00 -0.14296661685E+03  0.14296661685E+03  0.00000000000E+00 0.  1.
         21    1    1    2  503  501  0.99852097143E+02 -0.21983197830E+02  0.20121665026E+04  0.20147624516E+04  0.00000000000E+00 0.  1.
         21    1    1    2  504  505 -0.23655064981E+02  0.25966637208E+02 -0.12021326121E+03  0.12523999568E+03  0.00000000000E+00 0.  1.
         21    1    1    2  505  503 -0.80313409725E+02 -0.57490053951E+02  0.12230312364E+03  0.15720497491E+03  0.00000000000E+00 0. -1.
         21    1    1    2  506  502  0.41163775627E+01  0.53506614574E+02  0.48136134525E+03  0.48434352176E+03  0.00000000000E+00 0.  1.
<scales pt_clust_3="14000.00000" pt_clust_4="35.12589" pt_clust_5="105.02258" pt_clust_6="55.47040"></scales>
<clustering>
<clus scale="   35.126">  2  4  1 -1</clus>
<clus scale="   55.470">  1  6  2 -1</clus>
<clus scale="  105.023">  2  5  1 -1</clus>
<clus scale="   55.470">  1  3  2 -1</clus>
</clustering>
</event>
<event>
 6    0  0.1555973E+002  0.1330622E+03  0.7546771E-02  0.1222981E+00
         21   -1    0    0  503  501  0.00000000000E+00  0.00000000000E+00  0.25304667527E+03  0.25304667527E+03  0.00000000000E+00 0.  1.
         21   -1    0    0  506  502 -0.00000000000E+00 -0.00000000000E+00 -0.91286747958E+03  0.91286747958E+03  0.00000000000E+00 0.  1.
         21    1    1    2  503  504  0.39895088435E+02 -0.67656550530E+01 -0.69644283857E+01  0.41059656992E+02  0.00000000000E+00 0.  1.
         21    1    1    2  504  502  0.10553765446E+02  0.41458324874E+02 -0.85654962932E+01  0.43629604550E+02  0.00000000000E+00 0.  1.
         21    1    1    2  505  501 -0.17486845264E+02  0.95367191358E+02  0.20215885996E+03  0.22420726038E+03  0.00000000000E+00 0.  1.
         21    1    1    2  506  505 -0.32962008617E+02 -0.13005986118E+03 -0.84644973959E+03  0.85701763294E+03  0.00000000000E+00 0.  1.
<scales pt_clust_3="40.46470" pt_clust_4="43.12880" pt_clust_5="133.06221" pt_clust_6="14000.00000"></scales>
<clustering>
<clus scale="   40.465">  1  3  2 -1</clus>
<clus scale="   43.129">  1  4  2 -1</clus>
<clus scale="  133.062">  1  5  2 -1</clus>
<clus scale="   40.465">  1  3  2 -1</clus>
</clustering>
</event>
<event>
 6    0  0.1555973E+002  0.1807564E+03  0.7546771E-02  0.1167073E+00
         21   -1    0    0  506  501  0.00000000000E+00  0.00000000000E+00  0.67703217811E+03  0.67703217811E+03  0.00000000000E+00 0. -1.
         21   -1    0    0  504  502 -0.00000000000E+00 -0.00000000000E+00 -0.20420796945E+03  0.20420796945E+03  0.00000000000E+00 0.  1.
         21    1    1    2  503  502  0.30035164124E+02  0.17186360298E+02 -0.10612250461E+03  0.11162198730E+03  0.00000000000E+00 0.  1.
         21    1    1    2  504  505 -0.96020104133E+02  0.32582850672E+02  0.22377195263E+03  0.24567333869E+03  0.00000000000E+00 0. -1.
         21    1    1    2  505  501 -0.65827898604E+02  0.52906734446E+01  0.37406592398E+03  0.37985078510E+03  0.00000000000E+00 0.  1.
         21    1    1    2  506  503  0.13181283861E+03 -0.55059884414E+02 -0.18891163341E+02  0.14409403647E+03  0.00000000000E+00 0.  1.
<scales pt_clust_3="34.60465" pt_clust_4="64.16170" pt_clust_5="64.16170" pt_clust_6="162.57843"></scales>
<clustering>
<clus scale="   34.605">  2  3  1 -1</clus>
<clus scale="   64.162">  4  5 -1 -1</clus>
<clus scale="  162.578">  2  6  1 -1</clus>
<clus scale="  180.756">  1  3  2 -1</clus>
</clustering>
</event>
<event>
 6    0  0.1783384E+002  0.1127425E+03  0.7546771E-02  0.1255574E+00
         21   -1    0    0  503  501  0.00000000000E+00  0.00000000000E+00  0.12771626599E+04  0.12771626599E+04  0.00000000000E+00 0. -1.
         21   -1    0    0  505  502 -0.00000000000E+00 -0.00000000000E+00 -0.86625388256E+03  0.86625388256E+03  0.00000000000E+00 0. -1.
         21    1    1    2  503  504  0.53357552178E+01  0.63111312984E+02  0.13188307425E+02  0.64694973244E+02  0.00000000000E+00 0. -1.
         21    1    1    2  504  502 -0.10581443281E+03  0.61175135376E+00 -0.83398442556E+03  0.84067061951E+03  0.00000000000E+00 0. -1.
         21    1    1    2  505  506  0.47175922106E+02 -0.95967395554E+01  0.55943414603E+03  0.56150176205E+03  0.00000000000E+00 0. -1.
         21    1    1    2  506  501  0.53302755484E+02 -0.54126324782E+02  0.67227074941E+03  0.67654918763E+03  0.00000000000E+00 0. -1.
<scales pt_clust_3="63.33647" pt_clust_4="105.80292" pt_clust_5="31.00202" pt_clust_6="31.00202"></scales>
<clustering>
<clus scale="   31.002">  5  6 -1 -1</clus>
<clus scale="   63.336">  1  3  2 -1</clus>
<clus scale="  105.803">  2  4  1 -1</clus>
<clus scale="   63.336">  1  3  2 -1</clus>
</clustering>
</event>
<event>
 6    0  0.1555973E+002  0.3944614E+03  0.7546771E-02  0.1045715E+00
         21   -1    0    0  504  501  0.00000000000E+00  0.00000000000E+00  0.13008037296E+03  0.13008037296E+03  0.00000000000E+00 0.  1.
         21   -1    0    0  506  502 -0.00000000000E+00 -0.00000000000E+00 -0.27004934816E+04  0.27004934816E+04  0.00000000000E+00 0. -1.
         21    1    1    2  503  502 -0.12179941493E+03  0.52707290857E+02 -0.59238283830E+03  0.60706719818E+03  0.00000000000E+00 0. -1.
         21    1    1    2  504  505 -0.30537476708E+02 -0.55866493998E+02 -0.20799110377E+01  0.63701873326E+02  0.00000000000E+00 0. -1.
         21    1    1    2  505  503 -0.18493018837E+03 -0.24549848468E+03 -0.29003759252E+03  0.42259967537E+03  0.00000000000E+00 0.  1.
         21    1    1    2  506  501  0.33726708001E+03  0.24865768782E+03 -0.16859127668E+04  0.17372051077E+04  0.00000000000E+00 0. -1.
<scales pt_clust_3="132.71457" pt_clust_4="53.67752" pt_clust_5="53.67752" pt_clust_6="376.41788"></scales>
<clustering>
<clus scale="   53.678">  4  5 -1 -1</clus>
<clus scale="  132.715">  2  3  1 -1</clus>
<clus scale="  376.418">  2  6  1 -1</clus>
<clus scale="  394.461">  1  3  2 -1</clus>
</clustering>
</event>
<event>
 6    0  0.1555973E+002  0.9112953E+02  0.7546771E-02  0.1300139E+00
         21   -1    0    0  505  501  0.00000000000E+00  0.00000000000E+00  0.90107829827E+03  0.90107829827E+03  0.00000000000E+00 0. -1.
         21   -1    0    0  506  502 -0.00000000000E+00 -0.00000000000E+00 -0.57509592791E+02  0.57509592791E+02  0.00000000000E+00 0.  1.
         21    1    1    2  503  501  0.29930601025E+02  0.86727051939E+02  0.52422181273E+03  0.53218975127E+03  0.00000000000E+00 0. -1.
         21    1    1    2  504  503  0.48681483090E+02 -0.97634391028E+01  0.72306636816E+02  0.87712378070E+02  0.00000000000E+00 0. -1.
         21    1    1    2  505  502 -0.47896670230E+02 -0.77868775786E+02  0.27945034552E+03  0.29402403451E+03  0.00000000000E+00 0.  1.
         21    1    1    2  506  504 -0.30715413885E+02  0.90516294955E+00 -0.32410089586E+02  0.44661727206E+02  0.00000000000E+00 0.  1.
<scales pt_clust_3="14000.00000" pt_clust_4="37.41089" pt_clust_5="91.12953" pt_clust_6="30.72875"></scales>
<clustering>
<clus scale="   30.729">  2  6  1 -1</clus>
<clus scale="   37.411">  2  4  1 -1</clus>
<clus scale="   91.130">  2  5  1 -1</clus>
<clus scale="   91.130">  1  3  2 -1</clus>
</clustering>
</event>
<event>
 6    0  0.1555973E+002  0.1198105E+03  0.7546771E-02  0.1243410E+00
         21   -1    0    0  502  501  0.00000000000E+00  0.00000000000E+00  0.27582504410E+03  0.27582504410E+03  0.00000000000E+00 0. -1.
         21   -1    0    0  503  502 -0.00000000000E+00 -0.00000000000E+00 -0.24340862667E+03  0.24340862667E+03  0.00000000000E+00 0. -1.
         21    1    1    2  503  506 -0.60046495932E+01  0.88305321804E+02 -0.16121964094E+03  0.18391753125E+03  0.00000000000E+00 0. -1.
         21    1    1    2  504  505  0.61050946361E+02 -0.30173956623E+02  0.42329875663E+02  0.80184188488E+02  0.00000000000E+00 0. -1.
         21    1    1    2  505  501 -0.10540486236E+03 -0.36555028346E+02  0.16451558498E+03  0.19877583558E+03  0.00000000000E+00 0. -1.
         21    1    1    2  506  504  0.50358565595E+02 -0.21576336835E+02 -0.13209402279E+02  0.56356115450E+02  0.00000000000E+00 0.  1.
<scales pt_clust_3="88.50924" pt_clust_4="46.64984" pt_clust_5="107.93275" pt_clust_6="46.64984"></scales>
<clustering>
<clus scale="   46.650">  4  6 -1 -1</clus>
<clus scale="   88.509">  2  3  1 -1</clus>
<clus scale="  107.933">  1  5  2 -1</clus>
<clus scale="  107.933">  1  3  2 -1</clus>
</clustering>
</event>
<event>
 6    0  0.1555973E+002  0.9149718E+02  0.7546771E-02  0.1299266E+00
         21   -1    0    0  503  501  0.00000000000E+00  0.00000000000E+00  0.17553107001E+03  0.17553107001E+03  0.00000000000E+00 0.  1.
         21   -1    0    0  504  502 -0.00000000000E+00 -0.00000000000E+00 -0.46234673340E+03  0.46234673340E+03  0.00000000000E+00 0.  1.
         21    1    1    2  503  505  0.76401689233E+02  0.53816690357E+02  0.10180162620E+03  0.13819198738E+03  0.00000000000E+00 0.  1.
         21    1    1    2  504  506  0.40550121122E+02 -0.11965058691E+02 -0.31879346782E+03  0.32158474789E+03  0.00000000000E+00 0.  1.
         21    1    1    2  505  502 -0.66992369197E+02  0.29710492590E+02 -0.14319604447E+02  0.74670891062E+02  0.00000000000E+00 0.  1.
         21    1    1    2  506  501 -0.49959441158E+02 -0.71562124257E+02 -0.55504217332E+02  0.10343017708E+03  0.00000000000E+00 0.  1.
<scales pt_clust_3="91.49718" pt_clust_4="42.27854" pt_clust_5="60.18901" pt_clust_6="14000.00000"></scales>
<clustering>
<clus scale="   42.279">  2  4  1 -1</clus>
<clus scale="   60.189">  2  5  1 -1</clus>
<clus scale="   91.497">  1  3  2 -1</clus>
<clus scale="   91.497">  1  3  2 -1</clus>
</clustering>
</event>
<event>
 6    0  0.1555973E+002  0.1227725E+03  0.7546771E-02  0.1238592E+00
         21   -1    0    0  506  501  0.00000000000E+00  0.00000000000E+00  0.37586176238E+03  0.37586176238E+03  0.00000000000E+00 0. -1.
         21   -1    0    0  505  502 -0.00000000000E+00 -0.00000000000E+00 -0.20120910718E+03  0.20120910718E+03  0.00000000000E+00 0. -1.
         21    1    1    2  503  501 -0.10982699282E+02 -0.51591678071E+02  0.93516644269E+02  0.10736705121E+03  0.00000000000E+00 0. -1.
         21    1    1    2  504  502 -0.87390383734E+02  0.39807911201E+02 -0.98465059999E+02  0.13753951070E+03  0.00000000000E+00 0. -1.
         21    1    1    2  505  503  0.28478899678E+02 -0.68744116772E+02  0.20875553281E+03  0.22162056266E+03  0.00000000000E+00 0. -1.
         21    1    1    2  506  504  0.69894183338E+02  0.80527883642E+02 -0.29154461876E+02  0.11054374499E+03  0.00000000000E+00 0. -1.
<scales pt_clust_3="38.37637" pt_clust_4="96.02994" pt_clust_5="38.37637" pt_clust_6="113.99791"></scales>
<clustering>
<clus scale="   38.376">  3  5 -1 -1</clus>
<clus scale="   96.030">  2  4  1 -1</clus>
<clus scale="  113.998">  2  6  1 -1</clus>
<clus scale="  122.772">  1  3  2 -1</clus>
</clustering>
</event>
<event>
 6    0  0.1555973E+002  0.6821156E+02  0.7546771E-02  0.1366283E+00
         21   -1    0    0  505  501  0.00000000000E+00  0.00000000000E+00  0.32555388949E+03  0.32555388949E+03  0.00000000000E+00 0.  1.
         21   -1    0    0  504  502 -0.00000000000E+00 -0.00000000000E+00 -0.10965246987E+04  0.10965246987E+04  0.00000000000E+00 0. -1.
         21    1    1    2  503  502 -0.41121288071E+02 -0.23740094248E+02 -0.10429977892E+04  0.10440780338E+04  0.00000000000E+00 0. -1.
         21    1    1    2  504  506  0.96017945365E+02  0.45623212471E+02  0.24850624289E+02  0.10917177692E+03  0.00000000000E+00 0.  1.
         21    1    1    2  505  503 -0.67967726959E+02  0.12207150305E+02  0.16807144063E+03  0.18170480341E+03  0.00000000000E+00 0.  1.
         21    1    1    2  506  501  0.13071069666E+02 -0.34090268529E+02  0.79104915057E+02  0.87123974064E+02  0.00000000000E+00 0.  1.
<scales pt_clust_3="47.49495" pt_clust_4="68.21156" pt_clust_5="14000.00000" pt_clust_6="36.51026"></scales>
<clustering>
<clus scale="   36.510">  1  6  2 -1</clus>
<clus scale="   47.495">  2  3  1 -1</clus>
<clus scale="   68.212">  2  4  1 -1</clus>
<clus scale="   36.510">  1  3  2 -1</clus>
</clustering>
</event>
<event>
 6    0  0.1555973E+002  0.9856133E+02  0.7546771E-02  0.1283351E+00
         21   -1    0    0  505  501  0.00000000000E+00  0.00000000000E+00  0.10548564210E+04  0.10548564210E+04  0.00000000000E+00 0. -1.
         21   -1    0    0  506  502 -0.00000000000E+00 -0.00000000000E+00 -0.75699904255E+02  0.75699904255E+02  0.00000000000E+00 0. -1.
         21    1    1    2  503  504 -0.44678076289E+02 -0.46794252180E+02  0.12897800766E+03  0.14429538800E+03  0.00000000000E+00 0. -1.
         21    1    1    2  504  501  0.80755772674E+02  0.83456201314E+02  0.84454329305E+03  0.85249035548E+03  0.00000000000E+00 0. -1.
         21    1    1    2  505  502 -0.14378418059E+02  0.27257601659E+02  0.45814756650E+02  0.55215103739E+02  0.00000000000E+00 0.  1.
         21    1    1    2  506  503 -0.21699278326E+02 -0.63919550793E+02 -0.40179540578E+02  0.78555478068E+02  0.00000000000E+00 0. -1.
<scales pt_clust_3="98.56133" pt_clust_4="14000.00000" pt_clust_5="30.81746" pt_clust_6="53.18516"></scales>
<clustering>
<clus scale="   30.817">  2  5  1 -1</clus>
<clus scale="   53.185">  2  6  1 -1</clus>
<clus scale="   98.561">  2  3  1 -1</clus>
<clus scale="   98.561">  1  3  2 -1</clus>
</clustering>
</event>
<event>
 6    0  0.1555973E+002  0.8133922E+02  0.7546771E-02  0.1325293E+00
         21   -1    0    0  505  501  0.00000000000E+00  0.00000000000E+00  0.47134922134E+02  0.47134922134E+02  0.00000000000E+00 0.  1.
         21   -1    0    0  506  502 -0.00000000000E+00 -0.00000000000E+00 -0.97227974100E+03  0.97227974100E+03  0.00000000000E+00 0.  1.
         21    1    1    2  503  501 -0.30862577286E+02  0.13315236499E+02 -0.71295995650E+02  0.78822034961E+02  0.00000000000E+00 0. -1.
         21    1    1    2  504  502 -0.27937497092E+02  0.37729913910E+02 -0.59530320787E+03  0.59715153809E+03  0.00000000000E+00 0.  1.
         21    1    1    2  505  504  0.88522714655E+02  0.36917781141E+02 -0.36250398417E+02  0.10253431113E+03  0.00000000000E+00 0.  1.
         21    1    1    2  506  503 -0.29722640277E+02 -0.87962931551E+02 -0.22229521693E+03  0.24090677894E+03  0.00000000000E+00 0.  1.
<scales pt_clust_3="33.61241" pt_clust_4="47.56802" pt_clust_5="14000.00000" pt_clust_6="81.33922"></scales>
<clustering>
<clus scale="   33.612">  1  3  2 -1</clus>
<clus scale="   47.568">  2  4  1 -1</clus>
<clus scale="   81.339">  2  6  1 -1</clus>
<clus scale="   33.612">  1  3  2 -1</clus>
</clustering>
</event>
<event>
 6    0  0.1555973E+002  0.1263810E+03  0.7546771E-02  0.1232927E+00
         21   -1    0    0  504  501  0.00000000000E+00  0.00000000000E+00  0.40785208202E+03  0.40785208202E+03  0.00000000000E+00 0. -1.
         21   -1    0    0  506  502 -0.00000000000E+00 -0.00000000000E+00 -0.11843830986E+03  0.11843830986E+03  0.00000000000E+00 0.  1.
         21    1    1    2  503  502 -0.59335946917E+02  0.80974719712E+02 -0.19081235294E+02  0.10218489795E+03  0.00000000000E+00 0.  1.
         21    1    1    2  504  505  0.77046416528E+02 -0.82953342843E+02  0.14562503652E+03  0.18445611578E+03  0.00000000000E+00 0. -1.
         21    1    1    2  505  503  0.26538973732E+02 -0.78117107959E+02  0.60270078031E+02  0.10217182581E+03  0.00000000000E+00 0. -1.
         21    1    1    2  506  501 -0.44249443342E+02  0.80095731090E+02  0.10259989290E+03  0.13747755234E+03  0.00000000000E+00 0. -1.
<scales pt_clust_3="113.50330" pt_clust_4="47.44630" pt_clust_5="47.44630" pt_clust_6="91.50595"></scales>
<clustering>
<clus scale="   47.446">  4  5 -1 -1</clus>
<clus scale="   91.506">  1  6  2 -1</clus>
<clus scale="  113.503">  2  3  1 -1</clus>
<clus scale="   91.506">  1  3  2 -1</clus>
</clustering>
</event>
<event>
 6    0  0.1555973E+002  0.1058359E+03  0.7546771E-02  0.1268481E+00
         21   -1    0    0  503  501  0.00000000000E+00  0.00000000000E+00  0.16224440228E+03  0.16224440228E+03  0.00000000000E+00 0.  1.
         21   -1    0    0  504  502 -0.00000000000E+00 -0.00000000000E+00 -0.18058723449E+03  0.18058723449E+03  0.00000000000E+00 0.  1.
         21    1    1    2  503  502  0.12017627669E+03  0.11900787060E+02 -0.81780954256E+02  0.14584954813E+03  0.00000000000E+00 0.  1.
         21    1    1    2  504  506 -0.38537233442E+02 -0.32380397127E+01 -0.20520035855E+02  0.43779848493E+02  0.00000000000E+00 0.  1.
         21    1    1    2  505  501 -0.44514648661E+02 -0.39031324990E+02  0.86898276419E+02  0.10514898345E+03  0.00000000000E+00 0.  1.
         21    1    1    2  506  505 -0.37124394589E+02  0.30368577642E+02 -0.29401185186E+01  0.48053256690E+02  0.00000000000E+00 0.  1.
<scales pt_clust_3="98.88901" pt_clust_4="33.86328" pt_clust_5="59.20303" pt_clust_6="33.86328"></scales>
<clustering>
<clus scale="   33.863">  4  6 -1 -1</clus>
<clus scale="   59.203">  1  5  2 -1</clus>
<clus scale="   98.889">  1  3  2 -1</clus>
<clus scale="   59.203">  1  3  2 -1</clus>
</clustering>
</event>
<event>
 6    0  0.1555973E+002  0.8483439E+02  0.7546771E-02  0.1315866E+00
         21   -1    0    0  504  501  0.00000000000E+00  0.00000000000E+00  0.53866340205E+03  0.53866340205E+03  0.00000000000E+00 0. -1.
         21   -1    0    0  505  502 -0.00000000000E+00 -0.00000000000E+00 -0.12197139945E+03  0.12197139945E+03  0.00000000000E+00 0. -1.
         21    1    1    2  503  501  0.48873579030E+02  0.17759607914E+02  0.12461669849E+03  0.13503092958E+03  0.00000000000E+00 0. -1.
         21    1    1    2  504  506 -0.56219917996E+02 -0.28577477196E+02  0.16017951649E+03  0.17214769497E+03  0.00000000000E+00 0. -1.
         21    1    1    2  505  503  0.70711298100E+02 -0.20602426144E-01 -0.94547386403E+02  0.11806479738E+03  0.00000000000E+00 0. -1.
         21    1    1    2  506  502 -0.63364959134E+02  0.10838471709E+02  0.22644317402E+03  0.23539137957E+03  0.00000000000E+00 0. -1.
<scales pt_clust_3="52.00029" pt_clust_4="44.24854" pt_clust_5="72.11863" pt_clust_6="44.24854"></scales>
<clustering>
<clus scale="   44.249">  4  6 -1 -1</clus>
<clus scale="   52.000">  1  3  2 -1</clus>
<clus scale="   72.119">  2  5  1 -1</clus>
<clus scale="   52.000">  1  3  2 -1</clus>
</clustering>
</event>
<event>
 6    0  0.1555973E+002  0.1477590E+03  0.7546771E-02  0.1203254E+00
         21   -1    0    0  503  501  0.00000000000E+00  0.00000000000E+00  0.30235255231E+03  0.30235255231E+03  0.00000000000E+00 0. -1.
         21   -1    0    0  506  502 -0.00000000000E+00 -0.00000000000E+00 -0.65610027302E+03  0.65610027302E+03  0.00000000000E+00 0.  1.
         21    1    1    2  503  505 -0.76663009129E+01  0.41106912852E+02  0.18156564894E+02  0.45587402894E+02  0.00000000000E+00 0.  1.
         21    1    1    2  504  501  0.40615808163E+01 -0.94923321373E+02  0.31250760853E+02  0.10001771560E+03  0.00000000000E+00 0. -1.
         21    1    1    2  505  502  0.41991444757E+02  0.13927134047E+03  0.17476615712E+03  0.22738293116E+03  0.00000000000E+00 0. -1.
         21    1    1    2  506  504 -0.38386724660E+02 -0.85454931948E+02 -0.57792120358E+03  0.58546477569E+03  0.00000000000E+00 0.  1.
<scales pt_clust_3="32.07587" pt_clust_4="135.10594" pt_clust_5="32.07587" pt_clust_6="93.68077"></scales>
<clustering>
<clus scale="   32.076">  3  5 -1 -1</clus>
<clus scale="   93.681">  2  6  1 -1</clus>
<clus scale="  135.106">  1  4  2 -1</clus>
<clus scale="  135.106">  1  3  2 -1</clus>
</clustering>
</event>
<event>
 6    0  0.1555973E+002  0.1595007E+03  0.7546771E-02  0.1189262E+00
         21   -1    0    0  504  501  0.00000000000E+00  0.00000000000E+00  0.11982398772E+04  0.11982398772E+04  0.00000000000E+00 0. -1.
         21   -1    0    0  506  502 -0.00000000000E+00 -0.00000000000E+00 -0.41686641246E+03  0.41686641246E+03  0.00000000000E+00 0. -1.
         21    1    1    2  503  502 -0.53184875885E+02  0.76792985567E+02  0.37801305774E+03  0.38938369955E+03  0.00000000000E+00 0. -1.
         21    1    1    2  504  503 -0.34157956349E+02 -0.13580472856E+02  0.86718162974E+02  0.94187233819E+02  0.00000000000E+00 0. -1.
         21    1    1    2  505  501  0.61009910664E+02  0.97350997861E+02  0.70299378113E+03  0.71231992973E+03  0.00000000000E+00 0. -1.
         21    1    1    2  506  505  0.26332921569E+02 -0.16056351057E+03 -0.38635153708E+03  0.41921542658E+03  0.00000000000E+00 0. -1.
<scales pt_clust_3="159.50066" pt_clust_4="36.75861" pt_clust_5="96.94961" pt_clust_6="14000.00000"></scales>
<clustering>
<clus scale="   36.759">  1  4  2 -1</clus>
<clus scale="   96.950">  1  5  2 -1</clus>
<clus scale="  159.501">  1  3  2 -1</clus>
<clus scale="   36.759">  1  3  2 -1</clus>
</clustering>
</event>
<event>
 6    0  0.1555973E+002  0.8833033E+02  0.7546771E-02  0.1306946E+00
         21   -1    0    0  505  501  0.00000000000E+00  0.00000000000E+00  0.70578279760E+02  0.70578279760E+02  0.00000000000E+00 0.  1.
         21   -1    0    0  504  502 -0.00000000000E+00 -0.00000000000E+00 -0.47338289887E+03  0.47338289887E+03  0.00000000000E+00 0.  1.
         21    1    1    2  503  501 -0.25990839946E+02 -0.17670005680E+02  0.51706143621E+01  0.31851030042E+02  0.00000000000E+00 0.  1.
         21    1    1    2  504  503 -0.53936324559E+02  0.90145391380E+02 -0.36654462883E+03  0.38130077842E+03  0.00000000000E+00 0.  1.
         21    1    1    2  505  506  0.52447513423E+02 -0.22169182632E+02  0.48353403229E+01  0.57145383356E+02  0.00000000000E+00 0.  1.
         21    1    1    2  506  502  0.27479651082E+02 -0.50306203069E+02 -0.46265944964E+02  0.73663986820E+02  0.00000000000E+00 0.  1.
<scales pt_clust_3="31.42854" pt_clust_4="88.33033" pt_clust_5="49.35339" pt_clust_6="14000.00000"></scales>
<clustering>
<clus scale="   31.429">  1  3  2 -1</clus>
<clus scale="   49.353">  1  5  2 -1</clus>
<clus scale="   88.330">  2  4  1 -1</clus>
<clus scale="   31.429">  1  3  2 -1</clus>
</clustering>
</event>
<event>
 6    0  0.1555973E+002  0.1155593E+03  0.7546771E-02  0.1250608E+00
         21   -1    0    0  504  501  0.00000000000E+00  0.00000000000E+00  0.17256060459E+03  0.17256060459E+03  0.00000000000E+00 0. -1.
         21   -1    0    0  506  502 -0.00000000000E+00 -0.00000000000E+00 -0.19210274890E+03  0.19210274890E+03  0.00000000000E+00 0.  1.
         21    1    1    2  503  505  0.20044268394E+02 -0.11886450825E+03  0.20158340279E+02  0.12221662203E+03  0.00000000000E+00 0. -1.
         21    1    1    2  504  503 -0.20477091001E+02 -0.22471377653E+02  0.31400894261E+02  0.43706867079E+02  0.00000000000E+00 0. -1.
         21    1    1    2  505  502  0.46137734280E+02  0.40156732717E+02 -0.62396222342E+02  0.87375867776E+02  0.00000000000E+00 0.  1.
         21    1    1    2  506  501 -0.45704911673E+02  0.10117915319E+03 -0.87051565056E+01  0.11136399661E+03  0.00000000000E+00 0.  1.
<scales pt_clust_3="115.55932" pt_clust_4="30.40188" pt_clust_5="58.37291" pt_clust_6="14000.00000"></scales>
<clustering>
<clus scale="   30.402">  1  4  2 -1</clus>
<clus scale="   58.373">  2  5  1 -1</clus>
<clus scale="  115.559">  2  3  1 -1</clus>
<clus scale="   30.402">  1  3  2 -1</clus>
</clustering>
</event>
<event>
 6    0  0.1555973E+002  0.1128105E+03  0.7546771E-02  0.1255452E+00
         21   -1    0    0  504  501  0.00000000000E+00  0.00000000000E+00  0.47137412714E+03  0.47137412714E+03  0.00000000000E+00 0. -1.
         21   -1    0    0  501  502 -0.00000000000E+00 -0.00000000000E+00 -0.25703845771E+04  0.25703845771E+04  0.00000000000E+00 0.  1.
         21    1    1    2  503  502 -0.31995256504E+02 -0.17058281845E+02 -0.23304292027E+04  0.23307112542E+04  0.00000000000E+00 0.  1.
         21    1    1    2  504  505 -0.32289726606E+02 -0.31153014405E+02  0.13619872917E+03  0.14339885139E+03  0.00000000000E+00 0. -1.
         21    1    1    2  505  506 -0.64266949790E+02 -0.49107341990E+01  0.30732052198E+03  0.31400678237E+03  0.00000000000E+00 0. -1.
         21    1    1    2  506  503  0.12855193290E+03  0.53122030449E+02 -0.21210049843E+03  0.25364181636E+03  0.00000000000E+00 0.  1.
<scales pt_clust_3="36.25854" pt_clust_4="36.24145" pt_clust_5="36.24145" pt_clust_6="104.11243"></scales>
<clustering>
<clus scale="   36.241">  4  5 -1 -1</clus>
<clus scale="   36.259">  2  3  1 -1</clus>
<clus scale="  104.112">  2  6  1 -1</clus>
<clus scale="  112.810">  1  3  2 -1</clus>
</clustering>
</event>
<event>
 6    0  0.1555973E+002  0.1419909E+03  0.7546771E-02  0.1210675E+00
         21   -1    0    0  506  501  0.00000000000E+00  0.00000000000E+00  0.38769828085E+03  0.38769828085E+03  0.00000000000E+00 0. -1.
         21   -1    0    0  505  502 -0.00000000000E+00 -0.00000000000E+00 -0.46309167463E+03  0.46309167463E+03  0.00000000000E+00 0. -1.
         21    1    1    2  503  501 -0.28395165011E+02  0.12693613744E+03  0.29303463156E+03  0.32060624398E+03  0.00000000000E+00 0. -1.
         21    1    1    2  504  502  0.32444146947E+01 -0.11899090691E+03 -0.47387537995E+02  0.12812080592E+03  0.00000000000E+00 0. -1.
         21    1    1    2  505  503  0.68030204144E+01 -0.32562949856E+02 -0.35484249248E+03  0.35639840243E+03  0.00000000000E+00 0. -1.
         21    1    1    2  506  504  0.18347729902E+02  0.24617719325E+02  0.33802005130E+02  0.45664503153E+02  0.00000000000E+00 0. -1.
<scales pt_clust_3="141.99086" pt_clust_4="14000.00000" pt_clust_5="33.22055" pt_clust_6="30.70295"></scales>
<clustering>
<clus scale="   30.703">  1  6  2 -1</clus>
<clus scale="   33.221">  2  5  1 -1</clus>
<clus scale="  141.991">  1  3  2 -1</clus>
<clus scale="   30.703">  1  3  2 -1</clus>
</clustering>
</event>
<event>
 6    0  0.1620388E+002  0.1050592E+03  0.7546771E-02  0.1270003E+00
         21   -1    0    0  504  501  0.00000000000E+00  0.00000000000E+00  0.22157208773E+04  0.22157208773E+04  0.00000000000E+00 0. -1.
         21   -1    0    0  503  502 -0.00000000000E+00 -0.00000000000E+00 -0.28799720076E+03  0.28799720076E+03  0.00000000000E+00 0.  1.
         21    1    1    2  503  506 -0.79997908104E+02  0.70836397174E+02 -0.26812739163E+03  0.28863429909E+03  0.00000000000E+00 0.  1.
         21    1    1    2  504  502 -0.20152695155E+02 -0.60174127794E+02  0.13029239397E+03  0.14492468632E+03  0.00000000000E+00 0. -1.
         21    1    1    2  505  501  0.46129220875E+02 -0.11265018236E+02  0.16967705180E+04  0.16974348284E+04  0.00000000000E+00 0. -1.
         21    1    1    2  506  505  0.54021382384E+02  0.60274885606E+00  0.36878815612E+03  0.37272426425E+03  0.00000000000E+00 0.  1.
<scales pt_clust_3="105.05917" pt_clust_4="63.65688" pt_clust_5="47.48479" pt_clust_6="14000.00000"></scales>
<clustering>
<clus scale="   47.485">  1  5  2 -1</clus>
<clus scale="   63.657">  1  4  2 -1</clus>
<clus scale="  105.059">  2  3  1 -1</clus>
<clus scale="   47.485">  1  3  2 -1</clus>
</clustering>
</event>
<event>
 6    0  0.1555973E+002  0.1149874E+03  0.7546771E-02  0.1251603E+00
         21   -1    0    0  504  501  0.00000000000E+00  0.00000000000E+00  0.35911463611E+03  0.35911463611E+03  0.00000000000E+00 0. -1.
         21   -1    0    0  506  502 -0.00000000000E+00 -0.00000000000E+00 -0.12916630421E+04  0.12916630421E+04  0.00000000000E+00 0. -1.
         21    1    1    2  503  502  0.62334429921E+01 -0.31406758258E+02 -0.11229578022E+04  0.11234142004E+04  0.00000000000E+00 0. -1.
         21    1    1    2  504  503 -0.14106046150E+02 -0.42661573321E+02 -0.11453090116E+03  0.12302974314E+03  0.00000000000E+00 0.  1.
         21    1    1    2  505  501  0.48189214242E-01  0.13604174155E+03  0.31306140525E+03  0.34134264490E+03  0.00000000000E+00 0. -1.
         21    1    1    2  506  505  0.78244139440E+01 -0.61973409970E+02 -0.81211079522E+01  0.62991089776E+02  0.00000000000E+00 0.  1.
<scales pt_clust_3="32.01937" pt_clust_4="65.52770" pt_clust_5="14000.00000" pt_clust_6="114.98736"></scales>
<clustering>
<clus scale="   32.019">  2  3  1 -1</clus>
<clus scale="   65.528">  2  4  1 -1</clus>
<clus scale="  114.987">  2  6  1 -1</clus>
<clus scale="  114.987">  1  3  2 -1</clus>
</clustering>
</event>
<event>
 6    0  0.1555973E+002  0.2011662E+03  0.7546771E-02  0.1148759E+00
         21   -1    0    0  504  501  0.00000000000E+00  0.00000000000E+00  0.15858430976E+04  0.15858430976E+04  0.00000000000E+00 0.  1.
         21   -1    0    0  506  502 -0.00000000000E+00 -0.00000000000E+00 -0.86036277853E+02  0.86036277853E+02  0.00000000000E+00 0.  1.
         21    1    1    2  503  501 -0.77734131736E+02  0.31132409916E+01  0.30855072535E+03  0.31820722433E+03  0.00000000000E+00 0. -1.
         21    1    1    2  504  505  0.13018181242E+02  0.65167496965E+02  0.58180839116E+03  0.58559139315E+03  0.00000000000E+00 0. -1.
         21    1    1    2  505  502  0.60608326910E+02  0.15031720971E+03  0.49590658701E+03  0.52172020841E+03  0.00000000000E+00 0.  1.
         21    1    1    2  506  503  0.41076235834E+01 -0.21859794766E+03  0.11354111619E+03  0.24636054952E+03  0.00000000000E+00 0.  1.
<scales pt_clust_3="77.31838" pt_clust_4="66.45507" pt_clust_5="201.16617" pt_clust_6="14000.00000"></scales>
<clustering>
<clus scale="   66.455">  1  4  2 -1</clus>
<clus scale="   77.318">  1  3  2 -1</clus>
<clus scale="  201.166">  1  5  2 -1</clus>
<clus scale="   66.455">  1  3  2 -1</clus>
</clustering>
</event>
<event>
 6    0  0.1555973E+002  0.1871772E+03  0.7546771E-02  0.1161032E+00
         21   -1    0    0  503  501  0.00000000000E+00  0.00000000000E+00  0.10258529826E+04  0.10258529826E+04  0.00000000000E+00 0.  1.
         21   -1    0    0  505  502 -0.00000000000E+00 -0.00000000000E+00 -0.30555272109E+03  0.30555272109E+03  0.00000000000E+00 0.  1.
         21    1    1    2  503  504  0.32144633073E+02 -0.52939273955E+02  0.49480507111E+03  0.49866612334E+03  0.00000000000E+00 0.  1.
         21    1    1    2  504  506  0.29762534170E+02 -0.10983588677E+03  0.43446449141E+03  0.44912039005E+03  0.00000000000E+00 0.  1.
         21    1    1    2  505  501 -0.38302607903E+02 -0.40978371988E+02  0.34042294465E+02  0.65613981401E+02  0.00000000000E+00 0. -1.
         21    1    1    2  506  502 -0.23604559340E+02  0.20375353272E+03 -0.24301159551E+03  0.31800520887E+03  0.00000000000E+00 0.  1.
<scales pt_clust_3="49.09735" pt_clust_4="49.09735" pt_clust_5="56.09204" pt_clust_6="174.94623"></scales>
<clustering>
<clus scale="   49.097">  3  4 -1 -1</clus>
<clus scale="   56.092">  2  5  1 -1</clus>
<clus scale="  174.946">  2  6  1 -1</clus>
<clus scale="  187.177">  1  3  2 -1</clus>
</clustering>
</event>
<event>
 6    0  0.1555973E+002  0.1083161E+03  0.7546771E-02  0.1263720E+00
         21   -1    0    0  503  501  0.00000000000E+00  0.00000000000E+00  0.13046826554E+04  0.13046826554E+04  0.00000000000E+00 0.  1.
         21   -1    0    0  504  502 -0.00000000000E+00 -0.00000000000E+00 -0.12605782952E+04  0.12605782952E+04  0.00000000000E+00 0.  1.
         21    1    1    2  503  506  0.28767518157E+02  0.38208293790E+02  0.53974359944E+03  0.54185846579E+03  0.00000000000E+00 0.  1.
         21    1    1    2  504  501  0.85556968605E+02  0.32073760041E+00  0.41671020046E+03  0.42540273731E+03  0.00000000000E+00 0.  1.
         21    1    1    2  505  502  0.15939082519E+02 -0.29875183025E+02 -0.12425068677E+04  0.12429681802E+04  0.00000000000E+00 0.  1.
         21    1    1    2  506  505 -0.13026356928E+03 -0.86538483657E+01  0.33015742792E+03  0.35503156731E+03  0.00000000000E+00 0. -1.
<scales pt_clust_3="47.01610" pt_clust_4="14000.00000" pt_clust_5="33.86120" pt_clust_6="108.31612"></scales>
<clustering>
<clus scale="   33.861">  2  5  1 -1</clus>
<clus scale="   47.016">  1  3  2 -1</clus>
<clus scale="  108.316">  2  6  1 -1</clus>
<clus scale="   47.016">  1  3  2 -1</clus>
</clustering>
</event>
<event>
 6    0  0.1555973E+002  0.1033435E+03  0.7546771E-02  0.1273418E+00
         21   -1    0    0  506  501  0.00000000000E+00  0.00000000000E+00  0.96877561724E+02  0.96877561724E+02  0.00000000000E+00 0. -1.
         21   -1    0    0  505  502 -0.00000000000E+00 -0.00000000000E+00 -0.28963876970E+04  0.28963876970E+04  0.00000000000E+00 0. -1.
         21    1    1    2  503  501  0.86765346187E+01  0.46915752477E+02 -0.85428085631E+02  0.97848494613E+02  0.00000000000E+00 0. -1.
         21    1    1    2  504  502 -0.53016801109E+02  0.88828533822E+02 -0.26470953458E+04  0.26491159015E+04  0.00000000000E+00 0. -1.
         21    1    1    2  505  503  0.75054800141E+02 -0.66726057816E+01 -0.83648952639E+02  0.11258283159E+03  0.00000000000E+00 0. -1.
         21    1    1    2  506  504 -0.30714533651E+02 -0.12907168052E+03  0.16662248812E+02  0.13371803104E+03  0.00000000000E+00 0. -1.
<scales pt_clust_3="47.71132" pt_clust_4="103.34353" pt_clust_5="76.44356" pt_clust_6="14000.00000"></scales>
<clustering>
<clus scale="   47.711">  1  3  2 -1</clus>
<clus scale="   76.444">  1  5  2 -1</clus>
<clus scale="  103.344">  2  4  1 -1</clus>
<clus scale="   47.711">  1  3  2 -1</clus>
</clustering>
</event>
<event>
 6    0  0.1555973E+002  0.1717331E+03  0.7546771E-02  0.1176052E+00
         21   -1    0    0  503  501  0.00000000000E+00  0.00000000000E+00  0.52095331365E+03  0.52095331365E+03  0.00000000000E+00 0. -1.
         21   -1    0    0  505  502 -0.00000000000E+00 -0.00000000000E+00 -0.42666186769E+03  0.42666186769E+03  0.00000000000E+00 0. -1.
         21    1    1    2  503  502 -0.36533322923E+02 -0.60777846464E+02  0.20386809236E+02  0.73785176664E+02  0.00000000000E+00 0. -1.
         21    1    1    2  504  501  0.13095934546E+03  0.13422026753E+02  0.38884739860E+03  0.41052746603E+03  0.00000000000E+00 0. -1.
         21    1    1    2  505  506 -0.14238770920E+03  0.54376977146E+02 -0.36382507950E+03  0.39446140984E+03  0.00000000000E+00 0. -1.
         21    1    1    2  506  504  0.47961686664E+02 -0.70211574357E+01  0.48882317630E+02  0.68841128814E+02  0.00000000000E+00 0.  1.
<scales pt_clust_3="70.91284" pt_clust_4="47.52165" pt_clust_5="152.83656" pt_clust_6="47.52165"></scales>
<clustering>
<clus scale="   47.522">  4  6 -1 -1</clus>
<clus scale="   70.913">  1  3  2 -1</clus>
<clus scale="  152.837">  2  5  1 -1</clus>
<clus scale="   70.913">  1  3  2 -1</clus>
</clustering>
</event>
<event>
 6    0  0.1555973E+002  0.1566133E+03  0.7546771E-02  0.1192574E+00
         21   -1    0    0  503  501  0.00000000000E+00  0.00000000000E+00  0.11773933309E+03  0.11773933309E+03  0.00000000000E+00 0. -1.
         21   -1    0    0  504  502 -0.00000000000E+00 -0.00000000000E+00 -0.22346215642E+04  0.22346215642E+04  0.00000000000E+00 0.  1.
         21    1    1    2  503  506 -0.68868151573E+02  0.63193681774E+02 -0.28394518597E+02  0.97685784040E+02  0.00000000000E+00 0. -1.
         21    1    1    2  504  501 -0.12973837758E+03 -0.67106288501E+02 -0.20374164333E+04  0.20426455942E+04  0.00000000000E+00 0.  1.
         21    1    1    2  505  502  0.59777837044E+02  0.23966091942E+02 -0.26413536367E+02  0.69609182354E+02  0.00000000000E+00 0. -1.
         21    1    1    2  506  505  0.13882869211E+03 -0.20053485214E+02 -0.24657742777E+02  0.14242033668E+03  0.00000000000E+00 0. -1.
<scales pt_clust_3="93.46798" pt_clust_4="147.10322" pt_clust_5="36.41656" pt_clust_6="36.41656"></scales>
<clustering>
<clus scale="   36.417">  5  6 -1 -1</clus>
<clus scale="   93.468">  1  3  2 -1</clus>
<clus scale="  147.103">  2  4  1 -1</clus>
<clus scale="   93.468">  1  3  2 -1</clus>
</clustering>
</event>
<event>
 6    0  0.1555973E+002  0.1820565E+03  0.7546771E-02  0.1165827E+00
         21   -1    0    0  505  501  0.00000000000E+00  0.00000000000E+00  0.52431660041E+03  0.52431660041E+03  0.00000000000E+00 0. -1.
         21   -1    0    0  503  502 -0.00000000000E+00 -0.00000000000E+00 -0.62028490578E+03  0.62028490578E+03  0.00000000000E+00 0. -1.
         21    1    1    2  503  501 -0.19048020943E+02 -0.62292479318E+02  0.14876226799E+03  0.16239886840E+03  0.00000000000E+00 0.  1.
         21    1    1    2  504  502  0.15660934766E+03  0.88374881632E+02 -0.58516472884E+03  0.61217184463E+03  0.00000000000E+00 0. -1.
         21    1    1    2  505  506 -0.77139570997E+02  0.39205448637E+01  0.19369978892E+03  0.20853175373E+03  0.00000000000E+00 0. -1.
         21    1    1    2  506  504 -0.60421755724E+02 -0.30002947178E+02  0.14673436657E+03  0.16149903943E+03  0.00000000000E+00 0. -1.
<scales pt_clust_3="65.13970" pt_clust_4="178.10279" pt_clust_5="35.26603" pt_clust_6="35.26603"></scales>
<clustering>
<clus scale="   35.266">  5  6 -1 -1</clus>
<clus scale="   65.140">  1  3  2 -1</clus>
<clus scale="  178.103">  2  4  1 -1</clus>
<clus scale="   65.140">  1  3  2 -1</clus>
</clustering>
</event>
<event>
 6    0  0.1555973E+002  0.1685672E+03  0.7546771E-02  0.1179350E+00
         21   -1    0    0  504  501  0.00000000000E+00  0.00000000000E+00  0.23939271633E+03  0.23939271633E+03  0.00000000000E+00 0.  1.
         21   -1    0    0  505  502 -0.00000000000E+00 -0.00000000000E+00 -0.64408318676E+03  0.64408318676E+03  0.00000000000E+00 0. -1.
         21    1    1    2  503  501 -0.78484988391E+01 -0.14346198436E+03 -0.80784464421E+01  0.14390344397E+03  0.00000000000E+00 0. -1.
         21    1    1    2  504  506  0.82191044016E+02  0.17411697934E+03  0.10394667279E+03  0.21880813740E+03  0.00000000000E+00 0.  1.
         21    1    1    2  505  503 -0.63045056237E+02  0.20187988230E+01 -0.96860749061E+02  0.11558875107E+03  0.00000000000E+00 0. -1.
         21    1    1    2  506  502 -0.11297488940E+02 -0.32673793804E+02 -0.40369794772E+03  0.40517557065E+03  0.00000000000E+00 0. -1.
<scales pt_clust_3="168.56716" pt_clust_4="14000.00000" pt_clust_5="69.18474" pt_clust_6="34.57181"></scales>
<clustering>
<clus scale="   34.572">  2  6  1 -1</clus>
<clus scale="   69.185">  2  5  1 -1</clus>
<clus scale="  168.567">  2  3  1 -1</clus>
<clus scale="  168.567">  1  3  2 -1</clus>
</clustering>
</event>
<event>
 6    0  0.1555973E+002  0.2729791E+03  0.7546771E-02  0.1099587E+00
         21   -1    0    0  503  501  0.00000000000E+00  0.00000000000E+00  0.31050968609E+03  0.31050968609E+03  0.00000000000E+00 0. -1.
         21   -1    0    0  506  502 -0.00000000000E+00 -0.00000000000E+00 -0.51436038552E+03  0.51436038552E+03  0.00000000000E+00 0. -1.
         21    1    1    2  503  504 -0.44424145315E+02  0.24946488008E+03  0.16035656824E+03  0.29986740413E+03  0.00000000000E+00 0. -1.
         21    1    1    2  504  502 -0.34245975135E+02  0.66888493256E+01 -0.41077916064E+02  0.53897334873E+02  0.00000000000E+00 0. -1.
         21    1    1    2  505  501  0.26478721903E+02  0.25721945847E+02  0.28294101387E+01  0.37023597523E+02  0.00000000000E+00 0. -1.
         21    1    1    2  506  505  0.52191398546E+02 -0.28187567525E+03 -0.32595876174E+03  0.43408173509E+03  0.00000000000E+00 0. -1.
<scales pt_clust_3="272.97909" pt_clust_4="34.89309" pt_clust_5="36.20167" pt_clust_6="14000.00000"></scales>
<clustering>
<clus scale="   34.893">  2  4  1 -1</clus>
<clus scale="   36.202">  1  5  2 -1</clus>
<clus scale="  272.979">  1  3  2 -1</clus>
<clus scale="   36.202">  1  3  2 -1</clus>
</clustering>
</event>
<event>
 6    0  0.1555973E+002  0.1808618E+03  0.7546771E-02  0.1166972E+00
         21   -1    0    0  505  501  0.00000000000E+00  0.00000000000E+00  0.58823000719E+03  0.58823000719E+03  0.00000000000E+00 0.  1.
         21   -1    0    0  506  502 -0.00000000000E+00 -0.00000000000E+00 -0.11567966768E+04  0.11567966768E+04  0.00000000000E+00 0. -1.
         21    1    1    2  503  502 -0.15432691055E+02 -0.40502672891E+02 -0.99436674815E+03  0.99531093849E+03  0.00000000000E+00 0. -1.
         21    1    1    2  504  501 -0.30747768316E+02  0.12244826360E+03 -0.81118103220E+02  0.15006381705E+03  0.00000000000E+00 0.  1.
         21    1    1    2  505  503  0.66712523732E+02 -0.15116692043E+03  0.50061085119E+03  0.52717475564E+03  0.00000000000E+00 0.  1.
         21    1    1    2  506  504 -0.20532064360E+02  0.69221329721E+02  0.63073305960E+01  0.72477172782E+02  0.00000000000E+00 0.  1.
<scales pt_clust_3="43.34322" pt_clust_4="53.95627" pt_clust_5="167.77959" pt_clust_6="53.95627"></scales>
<clustering>
<clus scale="   43.343">  2  3  1 -1</clus>
<clus scale="   53.956">  4  6 -1 -1</clus>
<clus scale="  167.780">  1  5  2 -1</clus>
<clus scale="  167.780">  1  3  2 -1</clus>
</clustering>
</event>
<event>
 6    0  0.1555973E+002  0.1300907E+03  0.7546771E-02  0.1227321E+00
         21   -1    0    0  503  501  0.00000000000E+00  0.00000000000E+00  0.38514733360E+03  0.38514733360E+03  0.00000000000E+00 0. -1.
         21   -1    0    0  506  502 -0.00000000000E+00 -0.00000000000E+00 -0.76472715795E+03  0.76472715795E+03  0.00000000000E+00 0. -1.
         21    1    1    2  503  505  0.10806366898E+02 -0.46457384142E+02  0.27426983059E+02  0.55020955159E+02  0.00000000000E+00 0. -1.
         21    1    1    2  504  501 -0.11858287966E+03  0.60976270203E+02  0.29866187250E+03  0.32707631978E+03  0.00000000000E+00 0. -1.
         21    1    1    2  505  502 -0.22295257426E+02 -0.23533555984E+02  0.14778159151E+02  0.35627247281E+02  0.00000000000E+00 0. -1.
         21    1    1    2  506  504  0.13007177018E+03  0.90146699230E+01 -0.72044683906E+03  0.73214996932E+03  0.00000000000E+00 0. -1.
<scales pt_clust_3="80.22358" pt_clust_4="14000.00000" pt_clust_5="30.90264" pt_clust_6="130.09068"></scales>
<clustering>
<clus scale="   30.903">  3  5 -1 -1</clus>
<clus scale="   80.224">  1  3  2 -1</clus>
<clus scale="  130.091">  2  6  1 -1</clus>
<clus scale="   80.224">  1  3  2 -1</clus>
</clustering>
</event>
<event>
 6    0  0.1555973E+002  0.7688446E+02  0.7546771E-02  0.1338133E+00
         21   -1    0    0  503  501  0.00000000000E+00  0.00000000000E+00  0.73349431332E+02  0.73349431332E+02  0.00000000000E+00 0.  1.
         21   -1    0    0  501  502 -0.00000000000E+00 -0.00000000000E+00 -0.10546368421E+04  0.10546368421E+04  0.00000000000E+00 0. -1.
         21    1    1    2  503  505 -0.32052996927E+02 -0.22520993904E+02  0.25635473815E+02  0.46816314423E+02  0.00000000000E+00 0.  1.
         21    1    1    2  504  502  0.43656266416E+02 -0.34423131599E+02 -0.66354045222E+03  0.66586541682E+03  0.00000000000E+00 0. -1.
         21    1    1    2  505  506 -0.26534426089E+01 -0.51858838682E+02  0.31109054130E+01  0.52019781234E+02  0.00000000000E+00 0. -1.
         21    1    1    2  506  504 -0.89498268798E+01  0.10880296419E+03 -0.34649333776E+03  0.36328476094E+03  0.00000000000E+00 0. -1.
<scales pt_clust_3="39.17384" pt_clust_4="55.25615" pt_clust_5="14000.00000" pt_clust_6="76.88446"></scales>
<clustering>
<clus scale="   39.174">  1  3  2 -1</clus>
<clus scale="   55.256">  2  4  1 -1</clus>
<clus scale="   76.884">  2  6  1 -1</clus>
<clus scale="   39.174">  1  3  2 -1</clus>
</clustering>
</event>
<event>
 6    0  0.1555973E+002  0.8569470E+02  0.7546771E-02  0.1313626E+00
         21   -1    0    0  503  501  0.00000000000E+00  0.00000000000E+00  0.62304127201E+03  0.62304127201E+03  0.00000000000E+00 0.  1.
         21   -1    0    0  505  502 -0.00000000000E+00 -0.00000000000E+00 -0.74458664557E+02  0.74458664557E+02  0.00000000000E+00 0. -1.
         21    1    1    2  503  506 -0.53818441060E+01  0.80011990710E+02  0.37835636868E+03  0.38676145701E+03  0.00000000000E+00 0.  1.
         21    1    1    2  504  501  0.40225329201E+02 -0.71064902010E+00  0.14053049625E+03  0.14617592999E+03  0.00000000000E+00 0.  1.
         21    1    1    2  505  504  0.38152840257E+02  0.17063443442E+01  0.39666111830E+02  0.55063156996E+02  0.00000000000E+00 0. -1.
         21    1    1    2  506  502 -0.72996325352E+02 -0.81007686034E+02 -0.99703693059E+01  0.10949939258E+03  0.00000000000E+00 0. -1.
<scales pt_clust_3="14000.00000" pt_clust_4="41.84336" pt_clust_5="38.19098" pt_clust_6="85.69470"></scales>
<clustering>
<clus scale="   38.191">  2  5  1 -1</clus>
<clus scale="   41.843">  1  4  2 -1</clus>
<clus scale="   85.695">  2  6  1 -1</clus>
<clus scale="   41.843">  1  3  2 -1</clus>
</clustering>
</event>
<event>
 6    0  0.1555973E+002  0.4892173E+03  0.7546771E-02  0.1016632E+00
         21   -1    0    0  504  501  0.00000000000E+00  0.00000000000E+00  0.41848413266E+03  0.41848413266E+03  0.00000000000E+00 0. -1.
         21   -1    0    0  505  502 -0.00000000000E+00 -0.00000000000E+00 -0.13556629558E+04  0.13556629558E+04  0.00000000000E+00 0. -1.
         21    1    1    2  503  501  0.24591460164E+03  0.16938414153E+03 -0.43077558189E+03  0.52414938773E+03  0.00000000000E+00 0. -1.
         21    1    1    2  504  506 -0.42056897758E+03 -0.24591412674E+03  0.15802991734E+03  0.51217719337E+03  0.00000000000E+00 0. -1.
         21    1    1    2  505  503  0.89003846650E+02  0.14268547988E+03 -0.20174597738E+03  0.26264476061E+03  0.00000000000E+00 0.  1.
         21    1    1    2  506  502  0.85650529292E+02 -0.66155494669E+02 -0.46268718120E+03  0.47517574674E+03  0.00000000000E+00 0. -1.
<scales pt_clust_3="72.77357" pt_clust_4="479.51004" pt_clust_5="72.77357" pt_clust_6="108.22459"></scales>
<clustering>
<clus scale="   72.774">  3  5 -1 -1</clus>
<clus scale="  108.225">  2  6  1 -1</clus>
<clus scale="  479.510">  1  4  2 -1</clus>
<clus scale="  479.510">  1  3  2 -1</clus>
</clustering>
</event>
<event>
 6    0  0.1555973E+002  0.8517907E+02  0.7546771E-02  0.1314965E+00
         21   -1    0    0  506  501  0.00000000000E+00  0.00000000000E+00  0.28334861459E+03  0.28334861459E+03  0.00000000000E+00 0.  1.
         21   -1    0    0  504  502 -0.00000000000E+00 -0.00000000000E+00 -0.82684981410E+03  0.82684981410E+03  0.00000000000E+00 0. -1.
         21    1    1    2  503  505 -0.61139135578E+02  0.59961250954E+02  0.11763225925E+03  0.14550152553E+03  0.00000000000E+00 0.  1.
         21    1    1    2  504  501 -0.26982086296E+02  0.17082132720E+02  0.27966350522E+01  0.32057033655E+02  0.00000000000E+00 0. -1.
         21    1    1    2  505  502  0.81976642488E+02 -0.23746536282E+02 -0.79053919426E+03  0.79513287290E+03  0.00000000000E+00 0. -1.
         21    1    1    2  506  503  0.61445793859E+01 -0.53296847393E+02  0.12660910045E+03  0.13750699660E+03  0.00000000000E+00 0.  1.
<scales pt_clust_3="85.17907" pt_clust_4="31.93481" pt_clust_5="14000.00000" pt_clust_6="45.39722"></scales>
<clustering>
<clus scale="   31.935">  1  4  2 -1</clus>
<clus scale="   45.397">  1  6  2 -1</clus>
<clus scale="   85.179">  1  3  2 -1</clus>
<clus scale="   31.935">  1  3  2 -1</clus>
</clustering>
</event>
<event>
 6    0  0.1555973E+002  0.1202228E+03  0.7546771E-02  0.1242730E+00
         21   -1    0    0  505  501  0.00000000000E+00  0.00000000000E+00  0.17915104854E+03  0.17915104854E+03  0.00000000000E+00 0.  1.
         21   -1    0    0  506  502 -0.00000000000E+00 -0.00000000000E+00 -0.15501125607E+04  0.15501125607E+04  0.00000000000E+00 0.  1.
         21    1    1    2  503  504  0.57133017769E+02  0.67570621968E+01  0.70579682991E+02  0.91056747472E+02  0.00000000000E+00 0.  1.
         21    1    1    2  504  501  0.19591128692E+02 -0.24767883178E+02  0.86784986209E+02  0.92352012386E+02  0.00000000000E+00 0.  1.
         21    1    1    2  505  502  0.45495374576E+02  0.15382504285E+02 -0.87179206612E+02  0.99532229008E+02  0.00000000000E+00 0. -1.
         21    1    1    2  506  503 -0.12221952104E+03  0.26283166957E+01 -0.14411469747E+04  0.14463226203E+04  0.00000000000E+00 0.  1.
<scales pt_clust_3="14000.00000" pt_clust_4="31.57943" pt_clust_5="48.80124" pt_clust_6="120.22281"></scales>
<clustering>
<clus scale="   31.579">  1  4  2 -1</clus>
<clus scale="   48.801">  1  5  2 -1</clus>
<clus scale="  120.223">  2  6  1 -1</clus>
<clus scale="   31.579">  1  3  2 -1</clus>
</clustering>
</event>
<event>
 6    0  0.1555973E+002  0.9352369E+02  0.7546771E-02  0.1294536E+00
         21   -1    0    0  506  501  0.00000000000E+00  0.00000000000E+00  0.22073478810E+02  0.22073478810E+02  0.00000000000E+00 0. -1.
         21   -1    0    0  505  502 -0.00000000000E+00 -0.00000000000E+00 -0.21250113852E+04  0.21250113852E+04  0.00000000000E+00 0.  1.
         21    1    1    2  503  504  0.18152574958E+02 -0.96749179474E+02 -0.24562523084E+03  0.26461608744E+03  0.00000000000E+00 0. -1.
         21    1    1    2  504  502  0.39863508493E+02  0.86468178475E+02 -0.15415451443E+04  0.15444828511E+04  0.00000000000E+00 0.  1.
         21    1    1    2  505  501 -0.47132856582E+00  0.49435687440E+02 -0.15783078675E+03  0.16539246231E+03  0.00000000000E+00 0.  1.
         21    1    1    2  506  503 -0.57544754885E+02 -0.39154686441E+02 -0.15793674442E+03  0.17259346315E+03  0.00000000000E+00 0. -1.
<scales pt_clust_3="93.52369" pt_clust_4="14000.00000" pt_clust_5="49.43793" pt_clust_6="60.88993"></scales>
<clustering>
<clus scale="   49.438">  1  5  2 -1</clus>
<clus scale="   60.890">  1  6  2 -1</clus>
<clus scale="   93.524">  1  3  2 -1</clus>
<clus scale="   49.438">  1  3  2 -1</clus>
</clustering>
</event>
<event>
 6    0  0.1555973E+002  0.6731462E+02  0.7546771E-02  0.1369470E+00
         21   -1    0    0  504  501  0.00000000000E+00  0.00000000000E+00  0.32554015365E+02  0.32554015365E+02  0.00000000000E+00 0. -1.
         21   -1    0    0  505  502 -0.00000000000E+00 -0.00000000000E+00 -0.13041783043E+04  0.13041783043E+04  0.00000000000E+00 0.  1.
         21    1    1    2  503  502 -0.10103021802E+03  0.28507638263E+02 -0.11154877710E+03  0.15317610801E+03  0.00000000000E+00 0. -1.
         21    1    1    2  504  503  0.32652091415E+02  0.46427363899E+02 -0.10026139649E+03  0.11521287610E+03  0.00000000000E+00 0. -1.
         21    1    1    2  505  506  0.39388625514E+02 -0.53413587848E+02 -0.95838007830E+03  0.96067520508E+03  0.00000000000E+00 0.  1.
         21    1    1    2  506  501  0.28989501091E+02 -0.21521414314E+02 -0.10143403702E+03  0.10766813045E+03  0.00000000000E+00 0. -1.
<scales pt_clust_3="14000.00000" pt_clust_4="57.26262" pt_clust_5="67.31462" pt_clust_6="36.10488"></scales>
<clustering>
<clus scale="   36.105">  1  6  2 -1</clus>
<clus scale="   57.263">  1  4  2 -1</clus>
<clus scale="   67.315">  2  5  1 -1</clus>
<clus scale="   36.105">  1  3  2 -1</clus>
</clustering>
</event>
<event>
 6    0  0.1555973E+002  0.9562325E+02  0.7546771E-02  0.1289779E+00
         21   -1    0    0  504  501  0.00000000000E+00  0.00000000000E+00  0.92150210117E+02  0.92150210117E+02  0.00000000000E+00 0.  1.
         21   -1    0    0  506  502 -0.00000000000E+00 -0.00000000000E+00 -0.73989479594E+03  0.73989479594E+03  0.00000000000E+00 0. -1.
         21    1    1    2  503  501  0.42592536865E+02 -0.75210112125E+02 -0.97687764278E+02  0.13043613170E+03  0.00000000000E+00 0.  1.
         21    1    1    2  504  505 -0.43828000562E+02  0.10425474438E+03 -0.15169591807E+02  0.11410548574E+03  0.00000000000E+00 0.  1.
         21    1    1    2  505  502 -0.89225332122E+02 -0.39426105195E+02 -0.45816756295E+03  0.46843686171E+03  0.00000000000E+00 0. -1.
         21    1    1    2  506  503  0.90460795820E+02  0.10381472937E+02 -0.76719666786E+02  0.11906652692E+03  0.00000000000E+00 0.  1.
<scales pt_clust_3="86.43313" pt_clust_4="57.43641" pt_clust_5="95.62325" pt_clust_6="14000.00000"></scales>
<clustering>
<clus scale="   86.433">  1  3  2 -1</clus>
<clus scale="   57.436">  1  4  2 -1</clus>
<clus scale="   95.623">  2  5  1 -1</clus>
<clus scale="   86.433">  1  3  2 -1</clus>
</clustering>
</event>
<event>
 6    0  0.1555973E+002  0.1385906E+03  0.7546771E-02  0.1215238E+00
         21   -1    0    0  504  501  0.00000000000E+00  0.00000000000E+00  0.20765339199E+04  0.20765339199E+04  0.00000000000E+00 0. -1.
         21   -1    0    0  505  502 -0.00000000000E+00 -0.00000000000E+00 -0.53396799674E+03  0.53396799674E+03  0.00000000000E+00 0. -1.
         21    1    1    2  503  506 -0.75057510352E+02  0.42753987193E+02  0.11040366496E+04  0.11074106993E+04  0.00000000000E+00 0. -1.
         21    1    1    2  504  503 -0.33792943342E+02 -0.97062680682E+01  0.69165989413E+03  0.69255294657E+03  0.00000000000E+00 0. -1.
         21    1    1    2  505  501 -0.20872926158E+02 -0.33904896964E+02  0.26930760294E+03  0.27223483629E+03  0.00000000000E+00 0. -1.
         21    1    1    2  506  502  0.12972337985E+03  0.85717783876E+00 -0.52243822358E+03  0.53830343441E+03  0.00000000000E+00 0. -1.
<scales pt_clust_3="31.27105" pt_clust_4="31.27105" pt_clust_5="39.81483" pt_clust_6="129.63362"></scales>
<clustering>
<clus scale="   31.271">  3  4 -1 -1</clus>
<clus scale="   39.815">  1  5  2 -1</clus>
<clus scale="  129.634">  2  6  1 -1</clus>
<clus scale="   39.815">  1  3  2 -1</clus>
</clustering>
</event>
<event>
 6    0  0.1555973E+002  0.1138145E+03  0.7546771E-02  0.1253665E+00
         21   -1    0    0  504  501  0.00000000000E+00  0.00000000000E+00  0.34405525269E+03  0.34405525269E+03  0.00000000000E+00 0. -1.
         21   -1    0    0  506  502 -0.00000000000E+00 -0.00000000000E+00 -0.37981595008E+03  0.37981595008E+03  0.00000000000E+00 0. -1.
         21    1    1    2  503  505 -0.15864706365E+03  0.46587622667E+02  0.72346819126E+02  0.18048091209E+03  0.00000000000E+00 0. -1.
         21    1    1    2  504  502  0.74138839778E+02 -0.41502405171E+02 -0.29592440599E+03  0.30788028722E+03  0.00000000000E+00 0. -1.
         21    1    1    2  505  501  0.52973081201E+02 -0.21192322844E+02  0.19158444855E+03  0.19989963183E+03  0.00000000000E+00 0. -1.
         21    1    1    2  506  503  0.31535142676E+02  0.16107105348E+02 -0.37675590793E+01  0.35610371631E+02  0.00000000000E+00 0. -1.
<scales pt_clust_3="14000.00000" pt_clust_4="113.81455" pt_clust_5="57.32468" pt_clust_6="35.41051"></scales>
<clustering>
<clus scale="   35.411">  2  6  1 -1</clus>
<clus scale="   57.325">  1  5  2 -1</clus>
<clus scale="  113.815">  2  4  1 -1</clus>
<clus scale="   57.325">  1  3  2 -1</clus>
</clustering>
</event>
<event>
 6    0  0.1555973E+002  0.9013237E+02  0.7546771E-02  0.1302531E+00
         21   -1    0    0  505  501  0.00000000000E+00  0.00000000000E+00  0.52592192275E+03  0.52592192275E+03  0.00000000000E+00 0. -1.
         21   -1    0    0  503  502 -0.00000000000E+00 -0.00000000000E+00 -0.21105752737E+03  0.21105752737E+03  0.00000000000E+00 0.  1.
         21    1    1    2  503  501 -0.25437899891E+01 -0.41106559586E+02 -0.17041728059E+03  0.17532332883E+03  0.00000000000E+00 0.  1.
         21    1    1    2  504  502  0.41540262957E+02  0.25781224853E+02  0.10917069684E+02  0.50094385034E+02  0.00000000000E+00 0. -1.
         21    1    1    2  505  506 -0.84180317387E+02  0.62646877019E+02  0.39502046645E+03  0.40872010710E+03  0.00000000000E+00 0. -1.
         21    1    1    2  506  504  0.45183844419E+02 -0.47321542286E+02  0.79344139827E+02  0.10284162915E+03  0.00000000000E+00 0.  1.
<scales pt_clust_3="41.18519" pt_clust_4="40.50840" pt_clust_5="90.13237" pt_clust_6="14000.00000"></scales>
<clustering>
<clus scale="   41.185">  2  3  1 -1</clus>
<clus scale="   40.508">  2  4  1 -1</clus>
<clus scale="   90.132">  1  5  2 -1</clus>
<clus scale="   90.132">  1  3  2 -1</clus>
</clustering>
</event>
<event>
 6    0  0.1555973E+002  0.1103417E+03  0.7546771E-02  0.1259938E+00
         21   -1    0    0  504  501  0.00000000000E+00  0.00000000000E+00  0.20943539269E+03  0.20943539269E+03  0.00000000000E+00 0. -1.
         21   -1    0    0  506  502 -0.00000000000E+00 -0.00000000000E+00 -0.12406038634E+03  0.12406038634E+03  0.00000000000E+00 0. -1.
         21    1    1    2  503  501  0.37644284547E+02 -0.10016328259E+02  0.93856628502E+01  0.40068811537E+02  0.00000000000E+00 0. -1.
         21    1    1    2  504  505 -0.85057611522E+02 -0.68927602224E+02  0.12166529744E+03  0.16367118325E+03  0.00000000000E+00 0. -1.
         21    1    1    2  505  502 -0.11461208105E+02  0.54428053009E+02 -0.33185624343E+02  0.64769266698E+02  0.00000000000E+00 0. -1.
         21    1    1    2  506  503  0.58874535081E+02  0.24515877474E+02 -0.12490329593E+02  0.64986517545E+02  0.00000000000E+00 0. -1.
<scales pt_clust_3="30.27764" pt_clust_4="103.31711" pt_clust_5="55.62169" pt_clust_6="30.27764"></scales>
<clustering>
<clus scale="   30.278">  3  6 -1 -1</clus>
<clus scale="   55.622">  2  5  1 -1</clus>
<clus scale="  103.317">  1  4  2 -1</clus>
<clus scale="  103.317">  1  3  2 -1</clus>
</clustering>
</event>
<event>
 6    0  0.1951292E+002  0.1884718E+03  0.7546771E-02  0.1159847E+00
         21   -1    0    0  503  501  0.00000000000E+00  0.00000000000E+00  0.14055637864E+04  0.14055637864E+04  0.00000000000E+00 0. -1.
         21   -1    0    0  506  502 -0.00000000000E+00 -0.00000000000E+00 -0.38504584922E+03  0.38504584922E+03  0.00000000000E+00 0.  1.
         21    1    1    2  503  504  0.72489301030E+02  0.52026046774E+02  0.96910613479E+03  0.97320507027E+03  0.00000000000E+00 0. -1.
         21    1    1    2  504  505  0.97006771422E+02 -0.53199368553E+00  0.36553865766E+03  0.37819189172E+03  0.00000000000E+00 0. -1.
         21    1    1    2  505  502 -0.19275654501E+03 -0.28605194756E+02 -0.34374794937E+03  0.39514047566E+03  0.00000000000E+00 0.  1.
         21    1    1    2  506  501  0.23260472560E+02 -0.22888858332E+02  0.29621094134E+02  0.44072198007E+02  0.00000000000E+00 0.  1.
<scales pt_clust_3="95.91894" pt_clust_4="14000.00000" pt_clust_5="188.47175" pt_clust_6="32.63356"></scales>
<clustering>
<clus scale="   32.634">  1  6  2 -1</clus>
<clus scale="   95.919">  1  3  2 -1</clus>
<clus scale="  188.472">  2  5  1 -1</clus>
<clus scale="   32.634">  1  3  2 -1</clus>
</clustering>
</event>
<event>
 6    0  0.1639074E+002  0.1033547E+03  0.7546771E-02  0.1273396E+00
         21   -1    0    0  505  501  0.00000000000E+00  0.00000000000E+00  0.31853258488E+04  0.31853258488E+04  0.00000000000E+00 0.  1.
         21   -1    0    0  506  502 -0.00000000000E+00 -0.00000000000E+00 -0.25959099132E+03  0.25959099132E+03  0.00000000000E+00 0.  1.
         21    1    1    2  503  504 -0.17727998699E+02  0.40631489247E+02  0.25272377873E+02  0.51028354271E+02  0.00000000000E+00 0. -1.
         21    1    1    2  504  502  0.14055415247E+02 -0.31172949515E+02 -0.21647574413E+03  0.21915988519E+03  0.00000000000E+00 0.  1.
         21    1    1    2  505  503 -0.78008373791E+02  0.32819747985E+02  0.35267285460E+02  0.91685460478E+02  0.00000000000E+00 0. -1.
         21    1    1    2  506  501  0.81680957243E+02 -0.42278287717E+02  0.30816709383E+04  0.30830431402E+04  0.00000000000E+00 0.  1.
<scales pt_clust_3="33.49347" pt_clust_4="34.19514" pt_clust_5="33.49347" pt_clust_6="92.41511"></scales>
<clustering>
<clus scale="   33.493">  3  5 -1 -1</clus>
<clus scale="   34.195">  2  4  1 -1</clus>
<clus scale="   92.415">  1  6  2 -1</clus>
<clus scale="   92.415">  1  3  2 -1</clus>
</clustering>
</event>
<event>
 6    0  0.1555973E+002  0.8427855E+02  0.7546771E-02  0.1317330E+00
         21   -1    0    0  504  501  0.00000000000E+00  0.00000000000E+00  0.68573787945E+03  0.68573787945E+03  0.00000000000E+00 0. -1.
         21   -1    0    0  505  502 -0.00000000000E+00 -0.00000000000E+00 -0.37082779282E+02  0.37082779282E+02  0.00000000000E+00 0. -1.
         21    1    1    2  503  501 -0.79930547881E+02  0.51391130493E+02  0.29675160721E+03  0.31159502108E+03  0.00000000000E+00 0. -1.
         21    1    1    2  504  502 -0.34510474855E+00  0.52506146309E+02  0.68055511977E+02  0.85956775230E+02  0.00000000000E+00 0. -1.
         21    1    1    2  505  506  0.93514173505E+01 -0.83408354795E+02  0.13195706071E+03  0.15638755874E+03  0.00000000000E+00 0. -1.
         21    1    1    2  506  503  0.70924235279E+02 -0.20488922007E+02  0.15189092026E+03  0.16888130368E+03  0.00000000000E+00 0. -1.
<scales pt_clust_3="84.27855" pt_clust_4="52.50728" pt_clust_5="61.30418" pt_clust_6="14000.00000"></scales>
<clustering>
<clus scale="   52.507">  2  4  1 -1</clus>
<clus scale="   61.304">  2  5  1 -1</clus>
<clus scale="   84.279">  1  3  2 -1</clus>
<clus scale="   84.279">  1  3  2 -1</clus>
</clustering>
</event>
<event>
 6    0  0.1555973E+002  0.7347780E+02  0.7546771E-02  0.1348651E+00
         21   -1    0    0  506  501  0.00000000000E+00  0.00000000000E+00  0.16714287297E+04  0.16714287297E+04  0.00000000000E+00 0. -1.
         21   -1    0    0  503  502 -0.00000000000E+00 -0.00000000000E+00 -0.21456233064E+02  0.21456233064E+02  0.00000000000E+00 0.  1.
         21    1    1    2  503  504  0.36684226966E+02 -0.17320493389E+02  0.50866623416E+02  0.65062626577E+02  0.00000000000E+00 0.  1.
         21    1    1    2  504  501  0.65608698893E+02  0.40270583486E+02  0.11159974327E+04  0.11186494049E+04  0.00000000000E+00 0. -1.
         21    1    1    2  505  502 -0.10266441958E+03  0.20526831319E+02  0.23476736497E+03  0.25705456523E+03  0.00000000000E+00 0.  1.
         21    1    1    2  506  505  0.37149371720E+00 -0.43476921416E+02  0.24834107560E+03  0.25211836612E+03  0.00000000000E+00 0.  1.
<scales pt_clust_3="40.56762" pt_clust_4="73.47780" pt_clust_5="14000.00000" pt_clust_6="46.04940"></scales>
<clustering>
<clus scale="   40.568">  2  3  1 -1</clus>
<clus scale="   46.049">  1  6  2 -1</clus>
<clus scale="   73.478">  1  4  2 -1</clus>
<clus scale="   46.049">  1  3  2 -1</clus>
</clustering>
</event>
<event>
 6    0  0.1555973E+002  0.1200435E+03  0.7546771E-02  0.1243025E+00
         21   -1    0    0  503  501  0.00000000000E+00  0.00000000000E+00  0.15283228027E+04  0.15283228027E+04  0.00000000000E+00 0. -1.
         21   -1    0    0  505  502 -0.00000000000E+00 -0.00000000000E+00 -0.39254934838E+02  0.39254934838E+02  0.00000000000E+00 0. -1.
         21    1    1    2  503  502 -0.11145341850E+02 -0.58115624591E+02  0.18157251159E+03  0.19097178177E+03  0.00000000000E+00 0. -1.
         21    1    1    2  504  501 -0.73486047535E+02 -0.50146798637E+02  0.92137530340E+03  0.92566049409E+03  0.00000000000E+00 0. -1.
         21    1    1    2  505  506 -0.36708198025E+02  0.46904276703E+02  0.24134037480E+02  0.64264723919E+02  0.00000000000E+00 0. -1.
         21    1    1    2  506  504  0.12133958741E+03  0.61358146525E+02  0.36198601534E+03  0.38668073772E+03  0.00000000000E+00 0. -1.
<scales pt_clust_3="59.17469" pt_clust_4="120.04351" pt_clust_5="58.29838" pt_clust_6="14000.00000"></scales>
<clustering>
<clus scale="   59.175">  1  3  2 -1</clus>
<clus scale="   58.298">  2  5  1 -1</clus>
<clus scale="  120.044">  1  4  2 -1</clus>
<clus scale="   59.175">  1  3  2 -1</clus>
</clustering>
</event>
<event>
 6    0  0.1555973E+002  0.2248974E+03  0.7546771E-02  0.1130284E+00
         21   -1    0    0  503  501  0.00000000000E+00  0.00000000000E+00  0.19132324958E+03  0.19132324958E+03  0.00000000000E+00 0.  1.
         21   -1    0    0  504  502 -0.00000000000E+00 -0.00000000000E+00 -0.84827905076E+03  0.84827905076E+03  0.00000000000E+00 0.  1.
         21    1    1    2  503  502  0.51403415154E+02  0.22882787530E+03  0.59595634919E+02  0.24198377488E+03  0.00000000000E+00 0.  1.
         21    1    1    2  504  506 -0.60940657453E+02 -0.50849062159E+02 -0.52002691000E+03  0.52604883612E+03  0.00000000000E+00 0.  1.
         21    1    1    2  505  501 -0.22154043713E+01 -0.49712426582E+02 -0.21375252381E+02  0.54158423053E+02  0.00000000000E+00 0.  1.
         21    1    1    2  506  505  0.11752646671E+02 -0.12826638656E+03 -0.17514927372E+03  0.21741126628E+03  0.00000000000E+00 0.  1.
<scales pt_clust_3="217.29714" pt_clust_4="79.36870" pt_clust_5="36.03333" pt_clust_6="36.03333"></scales>
<clustering>
<clus scale="   36.033">  5  6 -1 -1</clus>
<clus scale="   79.369">  2  4  1 -1</clus>
<clus scale="  217.297">  1  3  2 -1</clus>
<clus scale="  217.297">  1  3  2 -1</clus>
</clustering>
</event>
<event>
 6    0  0.1555973E+002  0.1446232E+03  0.7546771E-02  0.1207240E+00
         21   -1    0    0  503  501  0.00000000000E+00  0.00000000000E+00  0.48540880426E+02  0.48540880426E+02  0.00000000000E+00 0. -1.
         21   -1    0    0  506  502 -0.00000000000E+00 -0.00000000000E+00 -0.12724151844E+04  0.12724151844E+04  0.00000000000E+00 0. -1.
         21    1    1    2  503  505  0.10878097199E+03  0.21389634649E+02 -0.24451411092E+03  0.26847340050E+03  0.00000000000E+00 0.  1.
         21    1    1    2  504  501 -0.18774150540E+03  0.36003350818E+02 -0.28022619575E+03  0.33921944948E+03  0.00000000000E+00 0. -1.
         21    1    1    2  505  502  0.93503541133E+02 -0.25183065729E+02 -0.60525539504E+03  0.61295284666E+03  0.00000000000E+00 0. -1.
         21    1    1    2  506  504 -0.14543007724E+02 -0.32209919737E+02 -0.93878602275E+02  0.10031036820E+03  0.00000000000E+00 0. -1.
<scales pt_clust_3="14000.00000" pt_clust_4="144.62323" pt_clust_5="95.62347" pt_clust_6="35.34088"></scales>
<clustering>
<clus scale="   35.341">  2  6  1 -1</clus>
<clus scale="   95.623">  2  5  1 -1</clus>
<clus scale="  144.623">  2  4  1 -1</clus>
<clus scale="  144.623">  1  3  2 -1</clus>
</clustering>
</event>
<event>
 6    0  0.1555973E+002  0.7281625E+02  0.7546771E-02  0.1350770E+00
         21   -1    0    0  504  501  0.00000000000E+00  0.00000000000E+00  0.96426853378E+02  0.96426853378E+02  0.00000000000E+00 0. -1.
         21   -1    0    0  506  502 -0.00000000000E+00 -0.00000000000E+00 -0.20926967831E+03  0.20926967831E+03  0.00000000000E+00 0. -1.
         21    1    1    2  503  501 -0.43362202069E+01 -0.55486867279E+02 -0.16774543794E+02  0.58128999352E+02  0.00000000000E+00 0. -1.
         21    1    1    2  504  505 -0.88363248395E+02  0.53555513140E+02 -0.11873268121E+01  0.10333279440E+03  0.00000000000E+00 0. -1.
         21    1    1    2  505  502  0.50889246228E+02  0.25858588012E+02 -0.68996307124E+02  0.89548156611E+02  0.00000000000E+00 0. -1.
         21    1    1    2  506  503  0.41810222374E+02 -0.23927233873E+02 -0.25884647203E+02  0.54686581321E+02  0.00000000000E+00 0. -1.
<scales pt_clust_3="60.98943" pt_clust_4="72.81625" pt_clust_5="14000.00000" pt_clust_6="48.17268"></scales>
<clustering>
<clus scale="   48.173">  2  6  1 -1</clus>
<clus scale="   60.989">  1  3  2 -1</clus>
<clus scale="   72.816">  1  4  2 -1</clus>
<clus scale="   60.989">  1  3  2 -1</clus>
</clustering>
</event>
<event>
 6    0  0.1555973E+002  0.1203381E+03  0.7546771E-02  0.1242540E+00
         21   -1    0    0  503  501  0.00000000000E+00  0.00000000000E+00  0.10815527264E+04  0.10815527264E+04  0.00000000000E+00 0.  1.
         21   -1    0    0  506  502 -0.00000000000E+00 -0.00000000000E+00 -0.17107047074E+03  0.17107047074E+03  0.00000000000E+00 0. -1.
         21    1    1    2  503  504 -0.39892630117E+02  0.41924703702E+02  0.39633187239E+03  0.40053471234E+03  0.00000000000E+00 0.  1.
         21    1    1    2  504  505 -0.82829869635E+02 -0.23125238938E+02  0.63324643204E+03  0.63905915819E+03  0.00000000000E+00 0.  1.
         21    1    1    2  505  502  0.18900567696E+02  0.37303226935E+02  0.45990227085E+01  0.42070336448E+02  0.00000000000E+00 0.  1.
         21    1    1    2  506  501  0.10382193206E+03 -0.56102691699E+02 -0.12369507150E+03  0.17095899013E+03  0.00000000000E+00 0. -1.
<scales pt_clust_3="58.06704" pt_clust_4="14000.00000" pt_clust_5="41.81820" pt_clust_6="120.33813"></scales>
<clustering>
<clus scale="   41.818">  2  5  1 -1</clus>
<clus scale="   58.067">  1  3  2 -1</clus>
<clus scale="  120.338">  2  6  1 -1</clus>
<clus scale="   58.067">  1  3  2 -1</clus>
</clustering>
</event>
<event>
 6    0  0.1555973E+002  0.1105684E+03  0.7546771E-02  0.1259521E+00
         21   -1    0    0  506  501  0.00000000000E+00  0.00000000000E+00  0.49996973696E+02  0.49996973696E+02  0.00000000000E+00 0. -1.
         21   -1    0    0  503  502 -0.00000000000E+00 -0.00000000000E+00 -0.20846744789E+04  0.20846744789E+04  0.00000000000E+00 0. -1.
         21    1    1    2  503  501 -0.41865781548E+02  0.19793417941E+02 -0.22317183090E+02  0.51406028046E+02  0.00000000000E+00 0. -1.
         21    1    1    2  504  502 -0.42173600925E+02  0.45099168721E+02 -0.15475124886E+04  0.15487438297E+04  0.00000000000E+00 0. -1.
         21    1    1    2  505  504 -0.58862327856E+02  0.30650764308E+02 -0.25376107145E+03  0.26229549057E+03  0.00000000000E+00 0. -1.
         21    1    1    2  506  505  0.14290171033E+03 -0.95543350971E+02 -0.21108676203E+03  0.27222610425E+03  0.00000000000E+00 0. -1.
<scales pt_clust_3="46.30900" pt_clust_4="62.49418" pt_clust_5="110.56845" pt_clust_6="14000.00000"></scales>
<clustering>
<clus scale="   46.309">  1  3  2 -1</clus>
<clus scale="   62.494">  2  4  1 -1</clus>
<clus scale="  110.568">  2  5  1 -1</clus>
<clus scale="   46.309">  1  3  2 -1</clus>
</clustering>
</event>
<event>
 6    0  0.1555973E+002  0.1208545E+03  0.7546771E-02  0.1241694E+00
         21   -1    0    0  503  501  0.00000000000E+00  0.00000000000E+00  0.54618971026E+03  0.54618971026E+03  0.00000000000E+00 0.  1.
         21   -1    0    0  505  502 -0.00000000000E+00 -0.00000000000E+00 -0.43480101763E+03  0.43480101763E+03  0.00000000000E+00 0.  1.
         21    1    1    2  503  502  0.19200506057E+01  0.94428292444E+02 -0.39746390354E+03  0.40853144754E+03  0.00000000000E+00 0.  1.
         21    1    1    2  504  501 -0.33910960263E+02  0.19195406824E+02  0.13959721130E+03  0.14493377201E+03  0.00000000000E+00 0.  1.
         21    1    1    2  505  506  0.10386866136E+03 -0.92171803922E+02  0.21415118405E+03  0.25523532255E+03  0.00000000000E+00 0.  1.
         21    1    1    2  506  504 -0.71877751699E+02 -0.21451895346E+02  0.15510420082E+03  0.17229018578E+03  0.00000000000E+00 0.  1.
<scales pt_clust_3="94.44781" pt_clust_4="36.65064" pt_clust_5="109.63595" pt_clust_6="36.65064"></scales>
<clustering>
<clus scale="   36.651">  4  6 -1 -1</clus>
<clus scale="   94.448">  2  3  1 -1</clus>
<clus scale="  109.636">  2  5  1 -1</clus>
<clus scale="  120.855">  1  3  2 -1</clus>
</clustering>
</event>
<event>
 6    0  0.1555973E+002  0.7053616E+02  0.7546771E-02  0.1358279E+00
         21   -1    0    0  503  501  0.00000000000E+00  0.00000000000E+00  0.48320423941E+03  0.48320423941E+03  0.00000000000E+00 0.  1.
         21   -1    0    0  505  502 -0.00000000000E+00 -0.00000000000E+00 -0.53744159149E+03  0.53744159149E+03  0.00000000000E+00 0. -1.
         21    1    1    2  503  504  0.12694371015E+02 -0.56311336324E+02  0.30043074460E+03  0.30592604654E+03  0.00000000000E+00 0.  1.
         21    1    1    2  504  506 -0.68649566752E+02  0.53798896685E+02  0.10739535432E+03  0.13835044788E+03  0.00000000000E+00 0.  1.
         21    1    1    2  505  501 -0.36712129026E+02  0.34698708043E+01 -0.48047316969E+03  0.48188617662E+03  0.00000000000E+00 0. -1.
         21    1    1    2  506  502  0.92667324763E+02 -0.95743116558E+00  0.18409718705E+02  0.94483159854E+02  0.00000000000E+00 0.  1.
<scales pt_clust_3="57.19049" pt_clust_4="14000.00000" pt_clust_5="36.87574" pt_clust_6="70.53616"></scales>
<clustering>
<clus scale="   36.876">  2  5  1 -1</clus>
<clus scale="   57.190">  1  3  2 -1</clus>
<clus scale="   70.536">  2  6  1 -1</clus>
<clus scale="   57.190">  1  3  2 -1</clus>
</clustering>
</event>
<event>
 6    0  0.1555973E+002  0.1404222E+03  0.7546771E-02  0.1212762E+00
         21   -1    0    0  506  501  0.00000000000E+00  0.00000000000E+00  0.90902610825E+03  0.90902610825E+03  0.00000000000E+00 0. -1.
         21   -1    0    0  505  502 -0.00000000000E+00 -0.00000000000E+00 -0.10125888001E+03  0.10125888001E+03  0.00000000000E+00 0. -1.
         21    1    1    2  503  502  0.45845169184E+02 -0.31708487906E+02  0.22583992236E+03  0.23261745049E+03  0.00000000000E+00 0. -1.
         21    1    1    2  504  501  0.27631179977E+02  0.39327660126E+02  0.18593776199E+03  0.19204946835E+03  0.00000000000E+00 0. -1.
         21    1    1    2  505  504 -0.13047400208E+03 -0.15328425910E+02 -0.46536191843E+02  0.13937016542E+03  0.00000000000E+00 0. -1.
         21    1    1    2  506  503  0.56997652917E+02  0.77092536898E+01  0.44252573574E+03  0.44624790399E+03  0.00000000000E+00 0. -1.
<scales pt_clust_3="46.35539" pt_clust_4="48.06399" pt_clust_5="129.32707" pt_clust_6="46.35539"></scales>
<clustering>
<clus scale="   48.064">  1  4  2 -1</clus>
<clus scale="   46.355">  3  6 -1 -1</clus>
<clus scale="  129.327">  2  5  1 -1</clus>
<clus scale="   48.064">  1  3  2 -1</clus>
</clustering>
</event>
<event>
 6    0  0.1555973E+002  0.1671795E+03  0.7546771E-02  0.1180822E+00
         21   -1    0    0  504  501  0.00000000000E+00  0.00000000000E+00  0.33440921721E+03  0.33440921721E+03  0.00000000000E+00 0. -1.
         21   -1    0    0  506  502 -0.00000000000E+00 -0.00000000000E+00 -0.32087204868E+03  0.32087204868E+03  0.00000000000E+00 0. -1.
         21    1    1    2  503  505 -0.88381812328E+02  0.26021098653E+01 -0.73306143535E+01  0.88723467205E+02  0.00000000000E+00 0.  1.
         21    1    1    2  504  503 -0.16959392347E+02 -0.46522888178E+02  0.20691832863E+03  0.21276088653E+03  0.00000000000E+00 0. -1.
         21    1    1    2  505  502 -0.50200331548E+02  0.15466432440E+02  0.48121190016E+02  0.71238562230E+02  0.00000000000E+00 0.  1.
         21    1    1    2  506  501  0.15554153622E+03  0.28454345872E+02 -0.23417173576E+03  0.28255834994E+03  0.00000000000E+00 0. -1.
<scales pt_clust_3="52.17227" pt_clust_4="49.51767" pt_clust_5="52.17227" pt_clust_6="153.48119"></scales>
<clustering>
<clus scale="   49.518">  1  4  2 -1</clus>
<clus scale="   52.172">  3  5 -1 -1</clus>
<clus scale="  153.481">  2  6  1 -1</clus>
<clus scale="   49.518">  1  3  2 -1</clus>
</clustering>
</event>
<event>
 6    0  0.1555973E+002  0.1596242E+03  0.7546771E-02  0.1189122E+00
         21   -1    0    0  506  501  0.00000000000E+00  0.00000000000E+00  0.19021587406E+04  0.19021587406E+04  0.00000000000E+00 0.  1.
         21   -1    0    0  503  502 -0.00000000000E+00 -0.00000000000E+00 -0.38443058803E+02  0.38443058803E+02  0.00000000000E+00 0.  1.
         21    1    1    2  503  505 -0.35609682986E+02  0.15552422579E+02 -0.11247874614E+02  0.40452961001E+02  0.00000000000E+00 0.  1.
         21    1    1    2  504  501  0.46151792532E+01  0.42406339073E+02  0.47575976963E+03  0.47766824876E+03  0.00000000000E+00 0.  1.
         21    1    1    2  505  504 -0.32015709849E+02  0.88445888524E+02  0.42131227007E+03  0.43168473425E+03  0.00000000000E+00 0.  1.
         21    1    1    2  506  502  0.63010213581E+02 -0.14640465017E+03  0.97789151672E+03  0.99079585540E+03  0.00000000000E+00 0.  1.
<scales pt_clust_3="38.85778" pt_clust_4="42.18148" pt_clust_5="42.18148" pt_clust_6="145.49361"></scales>
<clustering>
<clus scale="   38.858">  2  3  1 -1</clus>
<clus scale="   42.181">  4  5 -1 -1</clus>
<clus scale="  145.494">  2  6  1 -1</clus>
<clus scale="  159.624">  1  3  2 -1</clus>
</clustering>
</event>
<event>
 6    0  0.1555973E+002  0.1912862E+03  0.7546771E-02  0.1157306E+00
         21   -1    0    0  504  501  0.00000000000E+00  0.00000000000E+00  0.36990198866E+03  0.36990198866E+03  0.00000000000E+00 0. -1.
         21   -1    0    0  501  502 -0.00000000000E+00 -0.00000000000E+00 -0.34060015751E+03  0.34060015751E+03  0.00000000000E+00 0. -1.
         21    1    1    2  503  505  0.11711267688E+03 -0.90375552661E+02  0.10165313340E+03  0.17948949589E+03  0.00000000000E+00 0. -1.
         21    1    1    2  504  506 -0.21623363393E+01  0.85483724018E+02  0.55933298249E+02  0.10217962920E+03  0.00000000000E+00 0. -1.
         21    1    1    2  505  502 -0.15138156354E+03  0.85060384385E+02 -0.23390937011E+03  0.29131639191E+03  0.00000000000E+00 0. -1.
         21    1    1    2  506  503  0.36431222999E+02 -0.80168555743E+02  0.10562476961E+03  0.13751662916E+03  0.00000000000E+00 0. -1.
<scales pt_clust_3="53.82955" pt_clust_4="85.51107" pt_clust_5="178.10861" pt_clust_6="53.82955"></scales>
<clustering>
<clus scale="   53.830">  3  6 -1 -1</clus>
<clus scale="   85.511">  1  4  2 -1</clus>
<clus scale="  178.109">  2  5  1 -1</clus>
<clus scale="   85.511">  1  3  2 -1</clus>
</clustering>
</event>
<event>
 6    0  0.1555973E+002  0.2772162E+03  0.7546771E-02  0.1097219E+00
         21   -1    0    0  506  501  0.00000000000E+00  0.00000000000E+00  0.44783848928E+03  0.44783848928E+03  0.00000000000E+00 0.  1.
         21   -1    0    0  504  502 -0.00000000000E+00 -0.00000000000E+00 -0.35489876161E+03  0.35489876161E+03  0.00000000000E+00 0. -1.
         21    1    1    2  503  505 -0.19301416731E+03  0.15237289808E+03  0.60619563930E+02  0.25327198894E+03  0.00000000000E+00 0. -1.
         21    1    1    2  504  501  0.14314594526E+03 -0.29368470298E+03  0.13544872433E+03  0.35367756974E+03  0.00000000000E+00 0.  1.
         21    1    1    2  505  502  0.40215900365E+02  0.10793957090E+03 -0.11121842809E+03  0.16011810752E+03  0.00000000000E+00 0.  1.
         21    1    1    2  506  503  0.96523216925E+01  0.33372234010E+02  0.80898674937E+01  0.35669584704E+02  0.00000000000E+00 0. -1.
<scales pt_clust_3="277.21621" pt_clust_4="14000.00000" pt_clust_5="117.17652" pt_clust_6="34.74008"></scales>
<clustering>
<clus scale="   34.740">  1  6  2 -1</clus>
<clus scale="  117.177">  2  5  1 -1</clus>
<clus scale="  277.216">  2  3  1 -1</clus>
<clus scale="   34.740">  1  3  2 -1</clus>
</clustering>
</event>
<event>
 6    0  0.1555973E+002  0.1394883E+03  0.7546771E-02  0.1214019E+00
         21   -1    0    0  503  501  0.00000000000E+00  0.00000000000E+00  0.36452397964E+03  0.36452397964E+03  0.00000000000E+00 0. -1.
         21   -1    0    0  506  502 -0.00000000000E+00 -0.00000000000E+00 -0.10512124627E+03  0.10512124627E+03  0.00000000000E+00 0. -1.
         21    1    1    2  503  505 -0.56012184245E+01  0.10113249772E+03  0.71720364365E+02  0.12410868788E+03  0.00000000000E+00 0. -1.
         21    1    1    2  504  501  0.40326944924E+02 -0.11684449376E+03  0.17928960139E+03  0.21776973934E+03  0.00000000000E+00 0. -1.
         21    1    1    2  505  502  0.36718341797E+02  0.33983870755E+02  0.18482573103E+02  0.53336156633E+02  0.00000000000E+00 0. -1.
         21    1    1    2  506  504 -0.71444068297E+02 -0.18271874721E+02 -0.10089805484E+02  0.74430642046E+02  0.00000000000E+00 0.  1.
<scales pt_clust_3="45.14151" pt_clust_4="123.82080" pt_clust_5="45.14151" pt_clust_6="73.74358"></scales>
<clustering>
<clus scale="   45.142">  3  5 -1 -1</clus>
<clus scale="   73.744">  2  6  1 -1</clus>
<clus scale="  123.821">  1  4  2 -1</clus>
<clus scale="  123.821">  1  3  2 -1</clus>
</clustering>
</event>
<event>
 6    0  0.1555973E+002  0.1067686E+03  0.7546771E-02  0.1266674E+00
         21   -1    0    0  505  501  0.00000000000E+00  0.00000000000E+00  0.14985158512E+03  0.14985158512E+03  0.00000000000E+00 0. -1.
         21   -1    0    0  504  502 -0.00000000000E+00 -0.00000000000E+00 -0.63180092079E+03  0.63180092079E+03  0.00000000000E+00 0.  1.
         21    1    1    2  503  502 -0.49559263382E+02 -0.97906984252E+02 -0.55492072059E+03  0.56566677849E+03  0.00000000000E+00 0.  1.
         21    1    1    2  504  506  0.31919509121E+02  0.76816557835E+02  0.29526334538E+01  0.83236750684E+02  0.00000000000E+00 0. -1.
         21    1    1    2  505  503  0.40129824304E+01 -0.30986554988E+02 -0.12970264868E+02  0.33830435835E+02  0.00000000000E+00 0. -1.
         21    1    1    2  506  501  0.13626771831E+02  0.52076981405E+02  0.82989016333E+02  0.98918540904E+02  0.00000000000E+00 0. -1.
<scales pt_clust_3="14000.00000" pt_clust_4="106.76863" pt_clust_5="31.24533" pt_clust_6="35.76457"></scales>
<clustering>
<clus scale="   31.245">  1  5  2 -1</clus>
<clus scale="   35.765">  1  6  2 -1</clus>
<clus scale="  106.769">  1  4  2 -1</clus>
<clus scale="   31.245">  1  3  2 -1</clus>
</clustering>
</event>
<event>
 6    0  0.1555973E+002  0.1317833E+03  0.7546771E-02  0.1224833E+00
         21   -1    0    0  505  501  0.00000000000E+00  0.00000000000E+00  0.97194332293E+03  0.97194332293E+03  0.00000000000E+00 0.  1.
         21   -1    0    0  506  502 -0.00000000000E+00 -0.00000000000E+00 -0.39280371598E+03  0.39280371598E+03  0.00000000000E+00 0.  1.
         21    1    1    2  503  501  0.99790091428E+02  0.27049972383E+02  0.86610814395E+03  0.87225746220E+03  0.00000000000E+00 0.  1.
         21    1    1    2  504  502 -0.13652494675E+03 -0.96187871172E+02 -0.34719642296E+03  0.38527460825E+03  0.00000000000E+00 0.  1.
         21    1    1    2  505  504  0.24376596782E+02  0.19834406792E+02  0.43580053591E+02  0.53729351703E+02  0.00000000000E+00 0.  1.
         21    1    1    2  506  503  0.12358258536E+02  0.49303491997E+02  0.16647832369E+02  0.53485616756E+02  0.00000000000E+00 0.  1.
<scales pt_clust_3="14000.00000" pt_clust_4="131.78332" pt_clust_5="31.42646" pt_clust_6="51.78949"></scales>
<clustering>
<clus scale="   31.426">  1  5  2 -1</clus>
<clus scale="   51.789">  2  6  1 -1</clus>
<clus scale="  131.783">  2  4  1 -1</clus>
<clus scale="   31.426">  1  3  2 -1</clus>
</clustering>
</event>
<event>
 6    0  0.1555973E+002  0.1076040E+03  0.7546771E-02  0.1265072E+00
         21   -1    0    0  505  501  0.00000000000E+00  0.00000000000E+00  0.42392077297E+03  0.42392077297E+03  0.00000000000E+00 0. -1.
         21   -1    0    0  503  502 -0.00000000000E+00 -0.00000000000E+00 -0.22045654019E+03  0.22045654019E+03  0.00000000000E+00 0. -1.
         21    1    1    2  503  506  0.27739384822E+02  0.22476167849E+02 -0.16197360050E+03  0.16586168590E+03  0.00000000000E+00 0. -1.
         21    1    1    2  504  502  0.14601033162E+02  0.29843849205E+02  0.57349882969E+02  0.66278613303E+02  0.00000000000E+00 0.  1.
         21    1    1    2  505  504  0.40270708035E+02  0.46506380129E+02  0.27143132068E+03  0.27831553166E+03  0.00000000000E+00 0. -1.
         21    1    1    2  506  501 -0.82611126019E+02 -0.98826397183E+02  0.36656629631E+02  0.13392148229E+03  0.00000000000E+00 0. -1.
<scales pt_clust_3="35.70226" pt_clust_4="31.24608" pt_clust_5="31.24608" pt_clust_6="98.84762"></scales>
<clustering>
<clus scale="   31.246">  4  5 -1 -1</clus>
<clus scale="   35.702">  2  3  1 -1</clus>
<clus scale="   98.848">  2  6  1 -1</clus>
<clus scale="  107.604">  1  3  2 -1</clus>
</clustering>
</event>
<event>
 6    0  0.1555973E+002  0.1749825E+03  0.7546771E-02  0.1172749E+00
         21   -1    0    0  506  501  0.00000000000E+00  0.00000000000E+00  0.32723674128E+04  0.32723674128E+04  0.00000000000E+00 0.  1.
         21   -1    0    0  503  502 -0.00000000000E+00 -0.00000000000E+00 -0.33016989317E+03  0.33016989317E+03  0.00000000000E+00 0.  1.
         21    1    1    2  503  501 -0.80256183332E+02  0.24140958105E+02  0.25808648589E+03  0.27135304498E+03  0.00000000000E+00 0. -1.
         21    1    1    2  504  502  0.74076703111E+02  0.15040320862E+03 -0.29886242336E+03  0.34267656939E+03  0.00000000000E+00 0.  1.
         21    1    1    2  505  504 -0.67747762797E+01 -0.12937911792E+03  0.18318356737E+04  0.18364113888E+04  0.00000000000E+00 0.  1.
         21    1    1    2  506  505  0.12954256501E+02 -0.45165048811E+02  0.11511377834E+04  0.11520963027E+04  0.00000000000E+00 0.  1.
<scales pt_clust_3="83.80836" pt_clust_4="167.55639" pt_clust_5="30.37319" pt_clust_6="30.37319"></scales>
<clustering>
<clus scale="   30.373">  5  6 -1 -1</clus>
<clus scale="   83.808">  1  3  2 -1</clus>
<clus scale="  167.556">  2  4  1 -1</clus>
<clus scale="   83.808">  1  3  2 -1</clus>
</clustering>
</event>
<event>
 6    0  0.1555973E+002  0.8683528E+02  0.7546771E-02  0.1310702E+00
         21   -1    0    0  505  501  0.00000000000E+00  0.00000000000E+00  0.12290440542E+04  0.12290440542E+04  0.00000000000E+00 0. -1.
         21   -1    0    0  504  502 -0.00000000000E+00 -0.00000000000E+00 -0.40226467682E+03  0.40226467682E+03  0.00000000000E+00 0.  1.
         21    1    1    2  503  502 -0.57905386620E+02 -0.42653040964E+02 -0.38557277977E+03  0.39222274819E+03  0.00000000000E+00 0.  1.
         21    1    1    2  504  501 -0.69774097016E+02 -0.12852646164E+02  0.14308492118E+03  0.15970882818E+03  0.00000000000E+00 0.  1.
         21    1    1    2  505  506  0.81490104767E+02  0.42288023303E+02  0.84792913857E+03  0.85288495011E+03  0.00000000000E+00 0. -1.
         21    1    1    2  506  503  0.46189378870E+02  0.13217663825E+02  0.22133809736E+03  0.22649220450E+03  0.00000000000E+00 0. -1.
<scales pt_clust_3="72.11573" pt_clust_4="70.94797" pt_clust_5="34.99072" pt_clust_6="34.99072"></scales>
<clustering>
<clus scale="   34.991">  5  6 -1 -1</clus>
<clus scale="   70.948">  1  4  2 -1</clus>
<clus scale="   72.116">  2  3  1 -1</clus>
<clus scale="   70.948">  1  3  2 -1</clus>
</clustering>
</event>
<event>
 6    0  0.1555973E+002  0.2454933E+03  0.7546771E-02  0.1116187E+00
         21   -1    0    0  506  501  0.00000000000E+00  0.00000000000E+00  0.14253350023E+04  0.14253350023E+04  0.00000000000E+00 0. -1.
         21   -1    0    0  504  502 -0.00000000000E+00 -0.00000000000E+00 -0.18937500226E+03  0.18937500226E+03  0.00000000000E+00 0. -1.
         21    1    1    2  503  505 -0.12851682856E+03 -0.46967529915E+02  0.28151916796E+03  0.31301048867E+03  0.00000000000E+00 0. -1.
         21    1    1    2  504  501  0.22811119686E+03  0.67818265428E+02 -0.81207057190E+02  0.25145302026E+03  0.00000000000E+00 0. -1.
         21    1    1    2  505  502 -0.76087278914E+02  0.24065729017E+02  0.23867519775E+03  0.25166303532E+03  0.00000000000E+00 0. -1.
         21    1    1    2  506  503 -0.23507089389E+02 -0.44916464529E+02  0.79697269149E+03  0.79858346027E+03  0.00000000000E+00 0. -1.
<scales pt_clust_3="56.81401" pt_clust_4="233.23864" pt_clust_5="56.81401" pt_clust_6="50.69588"></scales>
<clustering>
<clus scale="   50.696">  1  6  2 -1</clus>
<clus scale="   56.814">  3  5 -1 -1</clus>
<clus scale="  233.239">  2  4  1 -1</clus>
<clus scale="   50.696">  1  3  2 -1</clus>
</clustering>
</event>
<event>
 6    0  0.1555973E+002  0.1832858E+03  0.7546771E-02  0.1164660E+00
         21   -1    0    0  504  501  0.00000000000E+00  0.00000000000E+00  0.63210495563E+02  0.63210495563E+02  0.00000000000E+00 0. -1.
         21   -1    0    0  503  502 -0.00000000000E+00 -0.00000000000E+00 -0.98605599182E+03  0.98605599182E+03  0.00000000000E+00 0.  1.
         21    1    1    2  503  505 -0.49062812304E+02  0.17302648813E+03 -0.70817328635E+03  0.73065363110E+03  0.00000000000E+00 0.  1.
         21    1    1    2  504  506  0.44911306416E+02 -0.11658439997E+03 -0.13056272007E+03  0.18070852673E+03  0.00000000000E+00 0. -1.
         21    1    1    2  505  501 -0.16733829200E+02 -0.32592438057E+02  0.10510297487E+02  0.38115015564E+02  0.00000000000E+00 0. -1.
         21    1    1    2  506  502  0.20885335088E+02 -0.23849650104E+02 -0.94619787333E+02  0.99789313991E+02  0.00000000000E+00 0.  1.
<scales pt_clust_3="172.25773" pt_clust_4="31.54238" pt_clust_5="36.63725" pt_clust_6="31.54238"></scales>
<clustering>
<clus scale="   31.542">  4  6 -1 -1</clus>
<clus scale="   36.637">  1  5  2 -1</clus>
<clus scale="  172.258">  2  3  1 -1</clus>
<clus scale="   36.637">  1  3  2 -1</clus>
</clustering>
</event>
<event>
 6    0  0.1555973E+002  0.1551174E+03  0.7546771E-02  0.1194322E+00
         21   -1    0    0  503  501  0.00000000000E+00  0.00000000000E+00  0.11587189459E+04  0.11587189459E+04  0.00000000000E+00 0. -1.
         21   -1    0    0  504  502 -0.00000000000E+00 -0.00000000000E+00 -0.10514615608E+03  0.10514615608E+03  0.00000000000E+00 0.  1.
         21    1    1    2  503  506  0.87279394684E+02 -0.45680344849E+02  0.33124023559E+03  0.34557847201E+03  0.00000000000E+00 0. -1.
         21    1    1    2  504  505 -0.13534433167E+03  0.54444485348E+02 -0.28536351468E+02  0.14864929686E+03  0.00000000000E+00 0.  1.
         21    1    1    2  505  501 -0.10909459089E+02  0.35350083232E+02  0.60594740309E+03  0.60707569544E+03  0.00000000000E+00 0. -1.
         21    1    1    2  506  502  0.58974396079E+02 -0.44114223731E+02  0.14492150262E+03  0.16256163770E+03  0.00000000000E+00 0.  1.
<scales pt_clust_3="39.72656" pt_clust_4="148.45295" pt_clust_5="36.99520" pt_clust_6="39.72656"></scales>
<clustering>
<clus scale="   36.995">  1  5  2 -1</clus>
<clus scale="   39.727">  3  6 -1 -1</clus>
<clus scale="  148.453">  2  4  1 -1</clus>
<clus scale="   36.995">  1  3  2 -1</clus>
</clustering>
</event>
<event>
 6    0  0.1555973E+002  0.1314989E+03  0.7546771E-02  0.1225248E+00
         21   -1    0    0  503  501  0.00000000000E+00  0.00000000000E+00  0.13605293964E+03  0.13605293964E+03  0.00000000000E+00 0. -1.
         21   -1    0    0  505  502 -0.00000000000E+00 -0.00000000000E+00 -0.28622964404E+03  0.28622964404E+03  0.00000000000E+00 0.  1.
         21    1    1    2  503  506  0.65807638859E+02  0.20031986047E+02  0.55692116994E+02  0.88507274800E+02  0.00000000000E+00 0. -1.
         21    1    1    2  504  501 -0.80661702173E+02 -0.54012050420E+02 -0.16500430300E+03  0.19144198024E+03  0.00000000000E+00 0.  1.
         21    1    1    2  505  504 -0.49084284701E+02  0.19411717614E+02 -0.53935808356E+02  0.75466238864E+02  0.00000000000E+00 0.  1.
         21    1    1    2  506  502  0.63938348016E+02  0.14568346759E+02  0.13071289962E+02  0.66867089779E+02  0.00000000000E+00 0. -1.
<scales pt_clust_3="36.29150" pt_clust_4="126.13636" pt_clust_5="52.78335" pt_clust_6="36.29150"></scales>
<clustering>
<clus scale="   36.292">  3  6 -1 -1</clus>
<clus scale="   52.783">  2  5  1 -1</clus>
<clus scale="  126.136">  2  4  1 -1</clus>
<clus scale="  131.499">  1  3  2 -1</clus>
</clustering>
</event>
<event>
 6    0  0.1555973E+002  0.1055532E+03  0.7546771E-02  0.1269034E+00
         21   -1    0    0  506  501  0.00000000000E+00  0.00000000000E+00  0.46176174503E+03  0.46176174503E+03  0.00000000000E+00 0.  1.
         21   -1    0    0  504  502 -0.00000000000E+00 -0.00000000000E+00 -0.29773073973E+03  0.29773073973E+03  0.00000000000E+00 0.  1.
         21    1    1    2  503  501  0.12789286078E+03 -0.63071105593E+02  0.95577972537E+02  0.17166740236E+03  0.00000000000E+00 0.  1.
         21    1    1    2  504  503 -0.58822996433E+02  0.51888524121E+02 -0.21473770171E+03  0.22861505720E+03  0.00000000000E+00 0.  1.
         21    1    1    2  505  502  0.30682371094E+02  0.38228900372E+02 -0.84996164872E+01  0.49750378894E+02  0.00000000000E+00 0.  1.
         21    1    1    2  506  505 -0.99752235445E+02 -0.27046318900E+02  0.29169035096E+03  0.30945964630E+03  0.00000000000E+00 0.  1.
<scales pt_clust_3="105.55317" pt_clust_4="89.91263" pt_clust_5="49.01894" pt_clust_6="14000.00000"></scales>
<clustering>
<clus scale="   49.019">  2  5  1 -1</clus>
<clus scale="   89.913">  2  4  1 -1</clus>
<clus scale="  105.553">  2  3  1 -1</clus>
<clus scale="  105.553">  1  3  2 -1</clus>
</clustering>
</event>
<event>
 6    0  0.1555973E+002  0.1741399E+03  0.7546771E-02  0.1173598E+00
         21   -1    0    0  505  501  0.00000000000E+00  0.00000000000E+00  0.26033744511E+03  0.26033744511E+03  0.00000000000E+00 0. -1.
         21   -1    0    0  504  502 -0.00000000000E+00 -0.00000000000E+00 -0.56911716754E+03  0.56911716754E+03  0.00000000000E+00 0. -1.
         21    1    1    2  503  501  0.10902599833E+03  0.65669767281E+02 -0.70260404436E+02  0.14538126110E+03  0.00000000000E+00 0. -1.
         21    1    1    2  504  503  0.13038280226E+02  0.34946764657E+02 -0.69906229598E+02  0.79234803261E+02  0.00000000000E+00 0. -1.
         21    1    1    2  505  506 -0.11082897170E+03 -0.16391979983E+03  0.16957556409E+03  0.26059285040E+03  0.00000000000E+00 0. -1.
         21    1    1    2  506  502 -0.11235306861E+02  0.63303267894E+02 -0.33818865249E+03  0.34424569789E+03  0.00000000000E+00 0. -1.
<scales pt_clust_3="14000.00000" pt_clust_4="37.29977" pt_clust_5="174.13987" pt_clust_6="87.44380"></scales>
<clustering>
<clus scale="   37.300">  2  4  1 -1</clus>
<clus scale="   87.444">  2  6  1 -1</clus>
<clus scale="  174.140">  1  5  2 -1</clus>
<clus scale="  174.140">  1  3  2 -1</clus>
</clustering>
</event>
<event>
 6    0  0.1555973E+002  0.1418692E+03  0.7546771E-02  0.1210836E+00
         21   -1    0    0  506  501  0.00000000000E+00  0.00000000000E+00  0.40290918921E+03  0.40290918921E+03  0.00000000000E+00 0.  1.
         21   -1    0    0  504  502 -0.00000000000E+00 -0.00000000000E+00 -0.16065187919E+03  0.16065187919E+03  0.00000000000E+00 0.  1.
         21    1    1    2  503  505 -0.39482005761E+02 -0.11187243235E+03  0.98514746119E+02  0.15420578816E+03  0.00000000000E+00 0.  1.
         21    1    1    2  504  501 -0.50452330335E+02  0.64986186087E+00 -0.79460194737E+02  0.94126417675E+02  0.00000000000E+00 0.  1.
         21    1    1    2  505  502  0.56495902812E+01 -0.31127450278E+02 -0.63596509732E+01  0.32268888912E+02  0.00000000000E+00 0.  1.
         21    1    1    2  506  503  0.84284745814E+02  0.14235002076E+03  0.22956240960E+03  0.28295997366E+03  0.00000000000E+00 0.  1.
<scales pt_clust_3="14000.00000" pt_clust_4="50.48128" pt_clust_5="31.63599" pt_clust_6="141.86923"></scales>
<clustering>
<clus scale="   31.636">  2  5  1 -1</clus>
<clus scale="   50.481">  2  4  1 -1</clus>
<clus scale="  141.869">  1  6  2 -1</clus>
<clus scale="  141.869">  1  3  2 -1</clus>
</clustering>
</event>
<event>
 6    0  0.1555973E+002  0.1064253E+03  0.7546771E-02  0.1267337E+00
         21   -1    0    0  506  501  0.00000000000E+00  0.00000000000E+00  0.38195179046E+03  0.38195179046E+03  0.00000000000E+00 0. -1.
         21   -1    0    0  503  502 -0.00000000000E+00 -0.00000000000E+00 -0.19979834898E+03  0.19979834898E+03  0.00000000000E+00 0.  1.
         21    1    1    2  503  505 -0.68689530512E+02  0.11688110679E+02 -0.13785640525E+03  0.15446440367E+03  0.00000000000E+00 0.  1.
         21    1    1    2  504  501  0.22534229343E+02  0.30947238364E+02  0.27271887281E+02  0.47002966825E+02  0.00000000000E+00 0. -1.
         21    1    1    2  505  504  0.22454882786E+02  0.55775701909E+02 -0.10106062877E+02  0.60969526743E+02  0.00000000000E+00 0. -1.
         21    1    1    2  506  502  0.23700418383E+02 -0.98411050953E+02  0.30284402233E+03  0.31931324220E+03  0.00000000000E+00 0. -1.
<scales pt_clust_3="69.67685" pt_clust_4="34.02701" pt_clust_5="34.02701" pt_clust_6="97.50813"></scales>
<clustering>
<clus scale="   34.027">  4  5 -1 -1</clus>
<clus scale="   69.677">  2  3  1 -1</clus>
<clus scale="   97.508">  1  6  2 -1</clus>
<clus scale="   97.508">  1  3  2 -1</clus>
</clustering>
</event>
<event>
 6    0  0.1555973E+002  0.8094060E+02  0.7546771E-02  0.1326403E+00
         21   -1    0    0  506  501  0.00000000000E+00  0.00000000000E+00  0.45390149154E+03  0.45390149154E+03  0.00000000000E+00 0. -1.
         21   -1    0    0  503  502 -0.00000000000E+00 -0.00000000000E+00 -0.12101912903E+03  0.12101912903E+03  0.00000000000E+00 0. -1.
         21    1    1    2  503  504 -0.11326398646E+02 -0.42473817679E+02 -0.64768022370E+02  0.78276492105E+02  0.00000000000E+00 0. -1.
         21    1    1    2  504  501  0.70386257732E+02 -0.29770684921E+02  0.31449691130E+03  0.32364923324E+03  0.00000000000E+00 0. -1.
         21    1    1    2  505  502  0.30910002669E+02 -0.66760177880E+01  0.12408120482E+02  0.33969971039E+02  0.00000000000E+00 0. -1.
         21    1    1    2  506  505 -0.89969861754E+02  0.78920520388E+02  0.70745353095E+02  0.13902492419E+03  0.00000000000E+00 0. -1.
<scales pt_clust_3="47.61201" pt_clust_4="80.94060" pt_clust_5="31.62274" pt_clust_6="14000.00000"></scales>
<clustering>
<clus scale="   31.623">  2  5  1 -1</clus>
<clus scale="   47.612">  2  3  1 -1</clus>
<clus scale="   80.941">  1  4  2 -1</clus>
<clus scale="   80.941">  1  3  2 -1</clus>
</clustering>
</event>
<event>
 6    0  0.1555973E+002  0.2319725E+03  0.7546771E-02  0.1125259E+00
         21   -1    0    0  504  501  0.00000000000E+00  0.00000000000E+00  0.15814958792E+04  0.15814958792E+04  0.00000000000E+00 0.  1.
         21   -1    0    0  505  502 -0.00000000000E+00 -0.00000000000E+00 -0.23399450614E+03  0.23399450614E+03  0.00000000000E+00 0.  1.
         21    1    1    2  503  501 -0.10190490787E+02  0.43353312047E+02  0.20160912761E+03  0.20646935875E+03  0.00000000000E+00 0. -1.
         21    1    1    2  504  506 -0.42326947311E+02  0.79875855092E+02  0.11204857535E+04  0.11241263481E+04  0.00000000000E+00 0.  1.
         21    1    1    2  505  503 -0.17810266888E+02  0.10685818888E+03  0.17191553202E+03  0.20320144755E+03  0.00000000000E+00 0.  1.
         21    1    1    2  506  502  0.70327704986E+02 -0.23008735602E+03 -0.14650904012E+03  0.28169323088E+03  0.00000000000E+00 0.  1.
<scales pt_clust_3="44.53488" pt_clust_4="231.97248" pt_clust_5="114.38386" pt_clust_6="14000.00000"></scales>
<clustering>
<clus scale="   44.535">  1  3  2 -1</clus>
<clus scale="  114.384">  1  5  2 -1</clus>
<clus scale="  231.972">  1  4  2 -1</clus>
<clus scale="   44.535">  1  3  2 -1</clus>
</clustering>
</event>
<event>
 6    0  0.1555973E+002  0.1122252E+03  0.7546771E-02  0.1256504E+00
         21   -1    0    0  504  501  0.00000000000E+00  0.00000000000E+00  0.85769068565E+03  0.85769068565E+03  0.00000000000E+00 0.  1.
         21   -1    0    0  505  502 -0.00000000000E+00 -0.00000000000E+00 -0.27147363400E+03  0.27147363400E+03  0.00000000000E+00 0. -1.
         21    1    1    2  503  502 -0.36484168096E+02 -0.25056156435E+02  0.91204789238E+01  0.45189474801E+02  0.00000000000E+00 0.  1.
         21    1    1    2  504  506  0.10879904688E+03 -0.21565018003E+02  0.69507618330E+03  0.70387014654E+03  0.00000000000E+00 0.  1.
         21    1    1    2  505  501  0.37685327826E+02 -0.19219840318E+02 -0.21513195053E+03  0.21925177841E+03  0.00000000000E+00 0. -1.
         21    1    1    2  506  503 -0.11000020661E+03  0.65841014756E+02  0.97152339961E+02  0.16085291989E+03  0.00000000000E+00 0.  1.
<scales pt_clust_3="39.53276" pt_clust_4="112.22524" pt_clust_5="42.30350" pt_clust_6="14000.00000"></scales>
<clustering>
<clus scale="   42.304">  2  5  1 -1</clus>
<clus scale="   39.533">  2  3  1 -1</clus>
<clus scale="  112.225">  1  4  2 -1</clus>
<clus scale="  112.225">  1  3  2 -1</clus>
</clustering>
</event>
<event>
 6    0  0.1555973E+002  0.1403191E+03  0.7546771E-02  0.1212900E+00
         21   -1    0    0  504  501  0.00000000000E+00  0.00000000000E+00  0.66745207470E+03  0.66745207470E+03  0.00000000000E+00 0.  1.
         21   -1    0    0  505  502 -0.00000000000E+00 -0.00000000000E+00 -0.10079833029E+03  0.10079833029E+03  0.00000000000E+00 0.  1.
         21    1    1    2  503  502 -0.31487028518E+02 -0.47118014099E+01 -0.45649546130E+02  0.55655324088E+02  0.00000000000E+00 0.  1.
         21    1    1    2  504  503  0.88312293706E+02 -0.10193559487E+03  0.55440532466E+03  0.57057443925E+03  0.00000000000E+00 0.  1.
         21    1    1    2  505  506 -0.13502204003E+02  0.32792902301E+02 -0.49497604641E+01  0.35807598118E+02  0.00000000000E+00 0.  1.
         21    1    1    2  506  501 -0.43323061185E+02  0.73854493976E+02  0.62847726342E+02  0.10621304354E+03  0.00000000000E+00 0.  1.
<scales pt_clust_3="31.83762" pt_clust_4="132.19127" pt_clust_5="30.28828" pt_clust_6="30.28828"></scales>
<clustering>
<clus scale="   30.288">  5  6 -1 -1</clus>
<clus scale="   31.838">  2  3  1 -1</clus>
<clus scale="  132.191">  1  4  2 -1</clus>
<clus scale="  132.191">  1  3  2 -1</clus>
</clustering>
</event>
<event>
 6    0  0.1555973E+002  0.8688886E+02  0.7546771E-02  0.1310566E+00
         21   -1    0    0  506  501  0.00000000000E+00  0.00000000000E+00  0.17027165529E+03  0.17027165529E+03  0.00000000000E+00 0. -1.
         21   -1    0    0  504  502 -0.00000000000E+00 -0.00000000000E+00 -0.18748186352E+03  0.18748186352E+03  0.00000000000E+00 0.  1.
         21    1    1    2  503  505 -0.52142152543E+02 -0.48720440595E+02  0.83453652294E+01  0.71847968130E+02  0.00000000000E+00 0.  1.
         21    1    1    2  504  503 -0.40108895075E+02 -0.97467690198E+01 -0.99853251164E+02  0.10804811307E+03  0.00000000000E+00 0.  1.
         21    1    1    2  505  501 -0.19719831280E+02  0.35453310281E+02  0.43475143653E+02  0.59463409516E+02  0.00000000000E+00 0. -1.
         21    1    1    2  506  502  0.11197087890E+03  0.23013899334E+02  0.30822534048E+02  0.11839402810E+03  0.00000000000E+00 0. -1.
<scales pt_clust_3="14000.00000" pt_clust_4="41.67017" pt_clust_5="40.56857" pt_clust_6="86.88886"></scales>
<clustering>
<clus scale="   40.569">  1  5  2 -1</clus>
<clus scale="   41.670">  2  4  1 -1</clus>
<clus scale="   86.889">  2  6  1 -1</clus>
<clus scale="   40.569">  1  3  2 -1</clus>
</clustering>
</event>
<event>
 6    0  0.1555973E+002  0.1228964E+03  0.7546771E-02  0.1238394E+00
         21   -1    0    0  504  501  0.00000000000E+00  0.00000000000E+00  0.49112568986E+02  0.49112568986E+02  0.00000000000E+00 0.  1.
         21   -1    0    0  503  502 -0.00000000000E+00 -0.00000000000E+00 -0.49888915540E+03  0.49888915540E+03  0.00000000000E+00 0.  1.
         21    1    1    2  503  501  0.98195703968E+01 -0.12620106085E+03 -0.33972603224E+03  0.36254228540E+03  0.00000000000E+00 0.  1.
         21    1    1    2  504  505 -0.23525163619E+02  0.26811819804E+02 -0.58199140801E+01  0.36141090249E+02  0.00000000000E+00 0.  1.
         21    1    1    2  505  506 -0.10077671461E+02  0.50028718467E+02 -0.60954245920E+02  0.79497498258E+02  0.00000000000E+00 0. -1.
         21    1    1    2  506  502  0.23783264682E+02  0.49360522581E+02 -0.43276394166E+02  0.69820850471E+02  0.00000000000E+00 0.  1.
<scales pt_clust_3="117.20773" pt_clust_4="35.66941" pt_clust_5="35.66792" pt_clust_6="35.66792"></scales>
<clustering>
<clus scale="   35.668">  5  6 -1 -1</clus>
<clus scale="   35.669">  1  4  2 -1</clus>
<clus scale="  117.208">  2  3  1 -1</clus>
<clus scale="   35.669">  1  3  2 -1</clus>
</clustering>
</event>
<event>
 6    0  0.1555973E+002  0.8619139E+02  0.7546771E-02  0.1312346E+00
         21   -1    0    0  505  501  0.00000000000E+00  0.00000000000E+00  0.11041448491E+03  0.11041448491E+03  0.00000000000E+00 0.  1.
         21   -1    0    0  506  502 -0.00000000000E+00 -0.00000000000E+00 -0.26367499777E+03  0.26367499777E+03  0.00000000000E+00 0.  1.
         21    1    1    2  503  502 -0.34537846899E+02 -0.84983549122E+02 -0.18170028665E+03  0.20354375612E+03  0.00000000000E+00 0.  1.
         21    1    1    2  504  501 -0.35448133314E+02  0.27356690910E+02  0.18319527712E+02  0.48379373586E+02  0.00000000000E+00 0. -1.
         21    1    1    2  505  503  0.15898072672E+02  0.64386815408E+02  0.12995963180E+02  0.67581844989E+02  0.00000000000E+00 0.  1.
         21    1    1    2  506  504  0.54087907540E+02 -0.67599571966E+01 -0.28757171059E+01  0.54584507988E+02  0.00000000000E+00 0.  1.
<scales pt_clust_3="86.19139" pt_clust_4="44.77677" pt_clust_5="14000.00000" pt_clust_6="42.26470"></scales>
<clustering>
<clus scale="   44.777">  1  4  2 -1</clus>
<clus scale="   42.265">  1  6  2 -1</clus>
<clus scale="   86.191">  2  3  1 -1</clus>
<clus scale="   44.777">  1  3  2 -1</clus>
</clustering>
</event>
<event>
 6    0  0.1555973E+002  0.1311981E+03  0.7546771E-02  0.1225689E+00
         21   -1    0    0  504  501  0.00000000000E+00  0.00000000000E+00  0.15398015746E+04  0.15398015746E+04  0.00000000000E+00 0.  1.
         21   -1    0    0  505  502 -0.00000000000E+00 -0.00000000000E+00 -0.87366261440E+02  0.87366261440E+02  0.00000000000E+00 0.  1.
         21    1    1    2  503  501  0.45541422770E+02  0.14740694346E+02  0.13808153896E+03  0.14614315126E+03  0.00000000000E+00 0. -1.
         21    1    1    2  504  506 -0.87171767357E+02 -0.10698359176E+03  0.13133013337E+04  0.13205320136E+04  0.00000000000E+00 0.  1.
         21    1    1    2  505  503  0.43048918628E+02  0.13763528807E+02  0.50463057390E+02  0.67743370757E+02  0.00000000000E+00 0. -1.
         21    1    1    2  506  502 -0.14185740413E+01  0.78479368605E+02 -0.49410616937E+02  0.92749300348E+02  0.00000000000E+00 0.  1.
<scales pt_clust_3="38.10260" pt_clust_4="125.20108" pt_clust_5="38.10260" pt_clust_6="78.49219"></scales>
<clustering>
<clus scale="   38.103">  3  5 -1 -1</clus>
<clus scale="   78.492">  2  6  1 -1</clus>
<clus scale="  125.201">  1  4  2 -1</clus>
<clus scale="  125.201">  1  3  2 -1</clus>
</clustering>
</event>
<event>
 6    0  0.1555973E+002  0.2151504E+03  0.7546771E-02  0.1137551E+00
         21   -1    0    0  504  501  0.00000000000E+00  0.00000000000E+00  0.11327420725E+04  0.11327420725E+04  0.00000000000E+00 0.  1.
         21   -1    0    0  505  502 -0.00000000000E+00 -0.00000000000E+00 -0.85671251789E+02  0.85671251789E+02  0.00000000000E+00 0.  1.
         21    1    1    2  503  501  0.10199410704E+02 -0.34141918805E+02  0.12546996149E+03  0.13043162897E+03  0.00000000000E+00 0.  1.
         21    1    1    2  504  502  0.95696296446E+02 -0.20783569285E+02  0.19008006515E+02  0.99754910744E+02  0.00000000000E+00 0.  1.
         21    1    1    2  505  506  0.10857021587E+02  0.20139121927E+03  0.34050743144E+03  0.39575448069E+03  0.00000000000E+00 0.  1.
         21    1    1    2  506  503 -0.11675272874E+03 -0.14646573118E+03  0.56208542126E+03  0.59247230388E+03  0.00000000000E+00 0.  1.
<scales pt_clust_3="33.45965" pt_clust_4="97.92721" pt_clust_5="201.00934" pt_clust_6="33.45965"></scales>
<clustering>
<clus scale="   33.460">  3  6 -1 -1</clus>
<clus scale="   97.927">  2  4  1 -1</clus>
<clus scale="  201.009">  2  5  1 -1</clus>
<clus scale="  215.150">  1  3  2 -1</clus>
</clustering>
</event>
<event>
 6    0  0.1555973E+002  0.1245889E+03  0.7546771E-02  0.1235713E+00
         21   -1    0    0  504  501  0.00000000000E+00  0.00000000000E+00  0.72517189208E+02  0.72517189208E+02  0.00000000000E+00 0. -1.
         21   -1    0    0  506  502 -0.00000000000E+00 -0.00000000000E+00 -0.32367177225E+03  0.32367177225E+03  0.00000000000E+00 0. -1.
         21    1    1    2  503  502 -0.61938377036E+02  0.24262707530E+02 -0.43216831190E+02  0.79326767391E+02  0.00000000000E+00 0. -1.
         21    1    1    2  504  505 -0.30778039347E+02  0.10920306522E+02  0.15590230440E+02  0.36188341848E+02  0.00000000000E+00 0. -1.
         21    1    1    2  505  503 -0.31749146061E+02 -0.26695866076E+02 -0.33333119692E+02  0.53214419188E+02  0.00000000000E+00 0. -1.
         21    1    1    2  506  501  0.12446556244E+03 -0.84871479761E+01 -0.19019486260E+03  0.22745943303E+03  0.00000000000E+00 0. -1.
<scales pt_clust_3="40.95235" pt_clust_4="32.65794" pt_clust_5="40.95235" pt_clust_6="112.24257"></scales>
<clustering>
<clus scale="   32.658">  1  4  2 -1</clus>
<clus scale="   40.952">  3  5 -1 -1</clus>
<clus scale="  112.243">  2  6  1 -1</clus>
<clus scale="   32.658">  1  3  2 -1</clus>
</clustering>
</event>
<event>
 6    0  0.1555973E+002  0.1124348E+03  0.7546771E-02  0.1256126E+00
         21   -1    0    0  505  501  0.00000000000E+00  0.00000000000E+00  0.54123772021E+02  0.54123772021E+02  0.00000000000E+00 0.  1.
         21   -1    0    0  504  502 -0.00000000000E+00 -0.00000000000E+00 -0.11681554987E+04  0.11681554987E+04  0.00000000000E+00 0.  1.
         21    1    1    2  503  501 -0.54978912213E+02 -0.10566131323E+02 -0.12153405655E+03  0.13380900875E+03  0.00000000000E+00 0.  1.
         21    1    1    2  504  503  0.56911718820E+02  0.10323960230E+03 -0.83826604026E+03  0.84651480405E+03  0.00000000000E+00 0.  1.
         21    1    1    2  505  506 -0.53268175319E+02  0.19860706896E+02 -0.22184622852E+02  0.61025434626E+02  0.00000000000E+00 0.  1.
         21    1    1    2  506  502  0.51335368711E+02 -0.11253417787E+03 -0.13204700702E+03  0.18093002330E+03  0.00000000000E+00 0.  1.
<scales pt_clust_3="55.98503" pt_clust_4="14000.00000" pt_clust_5="77.10984" pt_clust_6="112.43477"></scales>
<clustering>
<clus scale="   55.985">  1  3  2 -1</clus>
<clus scale="   77.110">  1  5  2 -1</clus>
<clus scale="  112.435">  1  6  2 -1</clus>
<clus scale="   55.985">  1  3  2 -1</clus>
</clustering>
</event>
<event>
 6    0  0.1555973E+002  0.3137105E+03  0.7546771E-02  0.1078581E+00
         21   -1    0    0  506  501  0.00000000000E+00  0.00000000000E+00  0.35095172259E+03  0.35095172259E+03  0.00000000000E+00 0.  1.
         21   -1    0    0  504  502 -0.00000000000E+00 -0.00000000000E+00 -0.57540042915E+03  0.57540042915E+03  0.00000000000E+00 0.  1.
         21    1    1    2  503  501 -0.25379319144E+02 -0.30701682205E+03  0.14819188196E+03  0.34185416882E+03  0.00000000000E+00 0.  1.
         21    1    1    2  504  505  0.18625583117E+02  0.21232266716E+03 -0.10476541280E+03  0.23749446110E+03  0.00000000000E+00 0.  1.
         21    1    1    2  505  503  0.50310073257E+02  0.73649367472E+02 -0.16113345486E+02  0.90636486598E+02  0.00000000000E+00 0. -1.
         21    1    1    2  506  502 -0.43556337230E+02  0.21044787420E+02 -0.25176183022E+03  0.25636703522E+03  0.00000000000E+00 0.  1.
<scales pt_clust_3="303.13063" pt_clust_4="50.78465" pt_clust_5="50.78465" pt_clust_6="48.37394"></scales>
<clustering>
<clus scale="   48.374">  2  6  1 -1</clus>
<clus scale="   50.785">  4  5 -1 -1</clus>
<clus scale="  303.131">  1  3  2 -1</clus>
<clus scale="  303.131">  1  3  2 -1</clus>
</clustering>
</event>
<event>
 6    0  0.1555973E+002  0.1403082E+03  0.7546771E-02  0.1212915E+00
         21   -1    0    0  503  501  0.00000000000E+00  0.00000000000E+00  0.65648349136E+03  0.65648349136E+03  0.00000000000E+00 0. -1.
         21   -1    0    0  506  502 -0.00000000000E+00 -0.00000000000E+00 -0.56955456073E+02  0.56955456073E+02  0.00000000000E+00 0. -1.
         21    1    1    2  503  505 -0.34835406169E+02 -0.86659860060E+01  0.18710003135E+03  0.19051253651E+03  0.00000000000E+00 0. -1.
         21    1    1    2  504  502 -0.29923090058E+02 -0.40030991416E+01  0.11292815719E+02  0.32232651275E+02  0.00000000000E+00 0. -1.
         21    1    1    2  505  504 -0.54854784067E+02 -0.78604672896E+02  0.28481942562E+03  0.30051596820E+03  0.00000000000E+00 0. -1.
         21    1    1    2  506  501  0.11961328029E+03  0.91273758044E+02  0.11631576261E+03  0.19017779145E+03  0.00000000000E+00 0. -1.
<scales pt_clust_3="31.94359" pt_clust_4="30.18967" pt_clust_5="31.94359" pt_clust_6="130.17626"></scales>
<clustering>
<clus scale="   30.190">  2  4  1 -1</clus>
<clus scale="   31.944">  3  5 -1 -1</clus>
<clus scale="  130.176">  2  6  1 -1</clus>
<clus scale="  140.308">  1  3  2 -1</clus>
</clustering>
</event>
<event>
 6    0  0.1555973E+002  0.9244982E+02  0.7546771E-02  0.1297025E+00
         21   -1    0    0  503  501  0.00000000000E+00  0.00000000000E+00  0.35623176564E+02  0.35623176564E+02  0.00000000000E+00 0.  1.
         21   -1    0    0  506  502 -0.00000000000E+00 -0.00000000000E+00 -0.26872951786E+04  0.26872951786E+04  0.00000000000E+00 0.  1.
         21    1    1    2  503  504 -0.54968488304E+02  0.48512794552E+02 -0.10159284707E+03  0.12528420698E+03  0.00000000000E+00 0.  1.
         21    1    1    2  504  505  0.13708713759E+03 -0.27450112448E+02 -0.20109165576E+03  0.24491681441E+03  0.00000000000E+00 0.  1.
         21    1    1    2  505  502 -0.31843736772E+02 -0.28565694109E+02 -0.19545321861E+04  0.19550002785E+04  0.00000000000E+00 0.  1.
         21    1    1    2  506  501 -0.50274912510E+02  0.75030120056E+01 -0.39445531313E+03  0.39771705529E+03  0.00000000000E+00 0.  1.
<scales pt_clust_3="92.44982" pt_clust_4="14000.00000" pt_clust_5="42.77876" pt_clust_6="67.95891"></scales>
<clustering>
<clus scale="   42.779">  2  5  1 -1</clus>
<clus scale="   67.959">  2  6  1 -1</clus>
<clus scale="   92.450">  1  3  2 -1</clus>
<clus scale="   92.450">  1  3  2 -1</clus>
</clustering>
</event>
<event>
 6    0  0.1555973E+002  0.3140789E+03  0.7546771E-02  0.1078407E+00
         21   -1    0    0  506  501  0.00000000000E+00  0.00000000000E+00  0.10238447836E+03  0.10238447836E+03  0.00000000000E+00 0. -1.
         21   -1    0    0  501  502 -0.00000000000E+00 -0.00000000000E+00 -0.24649021731E+04  0.24649021731E+04  0.00000000000E+00 0.  1.
         21    1    1    2  503  502  0.19238183086E+01 -0.28323763620E+03 -0.21913783073E+04  0.22096076904E+04  0.00000000000E+00 0.  1.
         21    1    1    2  504  503 -0.38188599609E+01  0.75862270950E+02  0.12236652111E+02  0.76937659829E+02  0.00000000000E+00 0. -1.
         21    1    1    2  505  504 -0.88276847225E+01  0.10176278227E+03 -0.11800198007E+03  0.15607068646E+03  0.00000000000E+00 0. -1.
         21    1    1    2  506  505  0.10722726375E+02  0.10561258298E+03 -0.65374059510E+02  0.12467061483E+03  0.00000000000E+00 0. -1.
<scales pt_clust_3="283.24417" pt_clust_4="72.89721" pt_clust_5="45.80811" pt_clust_6="72.89721"></scales>
<clustering>
<clus scale="   45.808">  5  6 -1 -1</clus>
<clus scale="   72.897">  4  5 -1 -1</clus>
<clus scale="  283.244">  2  3  1 -1</clus>
<clus scale="  314.079">  1  3  2 -1</clus>
</clustering>
</event>
<event>
 6    0  0.1555973E+002  0.1290728E+03  0.7546771E-02  0.1228838E+00
         21   -1    0    0  503  501  0.00000000000E+00  0.00000000000E+00  0.29048696645E+04  0.29048696645E+04  0.00000000000E+00 0.  1.
         21   -1    0    0  504  502 -0.00000000000E+00 -0.00000000000E+00 -0.51755146476E+02  0.51755146476E+02  0.00000000000E+00 0. -1.
         21    1    1    2  503  505  0.67616481468E+02  0.19990318702E+02  0.17195132757E+04  0.17209583106E+04  0.00000000000E+00 0.  1.
         21    1    1    2  504  506 -0.11695990862E+03 -0.62389177512E+02  0.47948461965E+02  0.14096483497E+03  0.00000000000E+00 0. -1.
         21    1    1    2  505  502  0.69232876470E+02  0.69407252694E+02  0.94650584720E+03  0.95156916548E+03  0.00000000000E+00 0.  1.
         21    1    1    2  506  501 -0.19889449321E+02 -0.27008393884E+02  0.13914693311E+03  0.14313249990E+03  0.00000000000E+00 0. -1.
<scales pt_clust_3="55.32807" pt_clust_4="129.07276" pt_clust_5="14000.00000" pt_clust_6="33.54167"></scales>
<clustering>
<clus scale="   33.542">  1  6  2 -1</clus>
<clus scale="   55.328">  1  3  2 -1</clus>
<clus scale="  129.073">  2  4  1 -1</clus>
<clus scale="   33.542">  1  3  2 -1</clus>
</clustering>
</event>
<event>
 6    0  0.1555973E+002  0.1204526E+03  0.7546771E-02  0.1242352E+00
         21   -1    0    0  504  501  0.00000000000E+00  0.00000000000E+00  0.48780517994E+03  0.48780517994E+03  0.00000000000E+00 0.  1.
         21   -1    0    0  503  502 -0.00000000000E+00 -0.00000000000E+00 -0.12780556001E+03  0.12780556001E+03  0.00000000000E+00 0.  1.
         21    1    1    2  503  505  0.17004613546E+02 -0.51363122433E+02  0.15179617204E+03  0.16115025621E+03  0.00000000000E+00 0.  1.
         21    1    1    2  504  502 -0.34415527223E+02  0.99614839280E+02 -0.79583181767E+02  0.13206448250E+03  0.00000000000E+00 0.  1.
         21    1    1    2  505  506 -0.10063949093E+01 -0.85791983863E+02  0.10863864203E+03  0.13843277021E+03  0.00000000000E+00 0.  1.
         21    1    1    2  506  501  0.18417308586E+02  0.37540267016E+02  0.17914798762E+03  0.18396323103E+03  0.00000000000E+00 0.  1.
<scales pt_clust_3="40.94285" pt_clust_4="107.94722" pt_clust_5="40.94285" pt_clust_6="41.81470"></scales>
<clustering>
<clus scale="   41.815">  1  6  2 -1</clus>
<clus scale="   40.943">  3  5 -1 -1</clus>
<clus scale="  107.947">  2  4  1 -1</clus>
<clus scale="   41.815">  1  3  2 -1</clus>
</clustering>
</event>
<event>
 6    0  0.1555973E+002  0.1830953E+03  0.7546771E-02  0.1164841E+00
         21   -1    0    0  503  501  0.00000000000E+00  0.00000000000E+00  0.63112916163E+03  0.63112916163E+03  0.00000000000E+00 0.  1.
         21   -1    0    0  505  502 -0.00000000000E+00 -0.00000000000E+00 -0.19284934816E+03  0.19284934816E+03  0.00000000000E+00 0.  1.
         21    1    1    2  503  506  0.64270302260E+02  0.17064296346E+02  0.12739405841E+02  0.67706383920E+02  0.00000000000E+00 0.  1.
         21    1    1    2  504  501 -0.12605467047E+03 -0.11742664334E+03  0.47313548039E+03  0.50352356381E+03  0.00000000000E+00 0.  1.
         21    1    1    2  505  504 -0.42234543435E+02  0.58867812619E+01 -0.95257259464E+02  0.10436645215E+03  0.00000000000E+00 0.  1.
         21    1    1    2  506  502  0.10401891164E+03  0.94475565734E+02  0.47662186702E+02  0.14838210991E+03  0.00000000000E+00 0.  1.
<scales pt_clust_3="32.87251" pt_clust_4="176.74955" pt_clust_5="42.64283" pt_clust_6="32.87251"></scales>
<clustering>
<clus scale="   32.873">  3  6 -1 -1</clus>
<clus scale="   42.643">  2  5  1 -1</clus>
<clus scale="  176.750">  1  4  2 -1</clus>
<clus scale="  176.750">  1  3  2 -1</clus>
</clustering>
</event>
<event>
 6    0  0.1555973E+002  0.7708612E+02  0.7546771E-02  0.1337530E+00
         21   -1    0    0  502  501  0.00000000000E+00  0.00000000000E+00  0.20766702993E+03  0.20766702993E+03  0.00000000000E+00 0. -1.
         21   -1    0    0  506  502 -0.00000000000E+00 -0.00000000000E+00 -0.33526445292E+03  0.33526445292E+03  0.00000000000E+00 0. -1.
         21    1    1    2  503  504  0.97521074776E+00 -0.57679746308E+02  0.29678211536E+02  0.64874497379E+02  0.00000000000E+00 0. -1.
         21    1    1    2  504  501 -0.41486833582E+02 -0.41818036156E+01  0.56065994524E+02  0.69871600698E+02  0.00000000000E+00 0.  1.
         21    1    1    2  505  503  0.11189245983E+02  0.10323791976E+03  0.66811717931E+02  0.12347903853E+03  0.00000000000E+00 0. -1.
         21    1    1    2  506  505  0.29322376851E+02 -0.41376369839E+02 -0.28015334699E+03  0.28470634624E+03  0.00000000000E+00 0. -1.
<scales pt_clust_3="14000.00000" pt_clust_4="41.69706" pt_clust_5="77.08612" pt_clust_6="50.39249"></scales>
<clustering>
<clus scale="   41.697">  1  4  2 -1</clus>
<clus scale="   50.392">  2  6  1 -1</clus>
<clus scale="   77.086">  2  5  1 -1</clus>
<clus scale="   41.697">  1  3  2 -1</clus>
</clustering>
</event>
<event>
 6    0  0.1555973E+002  0.9223677E+02  0.7546771E-02  0.1297524E+00
         21   -1    0    0  505  501  0.00000000000E+00  0.00000000000E+00  0.37853560043E+02  0.37853560043E+02  0.00000000000E+00 0. -1.
         21   -1    0    0  506  502 -0.00000000000E+00 -0.00000000000E+00 -0.12630375560E+04  0.12630375560E+04  0.00000000000E+00 0. -1.
         21    1    1    2  503  502  0.31527478020E+02  0.25599132174E+02 -0.13805651261E+03  0.14390586545E+03  0.00000000000E+00 0. -1.
         21    1    1    2  504  501 -0.92090426418E+02 -0.67533257420E+02 -0.14093420269E+03  0.18139414815E+03  0.00000000000E+00 0. -1.
         21    1    1    2  505  503 -0.62870860938E+01  0.60302900196E+02 -0.55476400406E+02  0.82180278812E+02  0.00000000000E+00 0. -1.
         21    1    1    2  506  504  0.66850034492E+02 -0.18368774950E+02 -0.89071688024E+03  0.89341082361E+03  0.00000000000E+00 0. -1.
<scales pt_clust_3="40.61154" pt_clust_4="14000.00000" pt_clust_5="62.02613" pt_clust_6="92.23677"></scales>
<clustering>
<clus scale="   40.612">  2  3  1 -1</clus>
<clus scale="   62.026">  1  5  2 -1</clus>
<clus scale="   92.237">  2  6  1 -1</clus>
<clus scale="   62.026">  1  3  2 -1</clus>
</clustering>
</event>
<event>
 6    0  0.1555973E+002  0.2107300E+03  0.7546771E-02  0.1140989E+00
         21   -1    0    0  504  501  0.00000000000E+00  0.00000000000E+00  0.43155004556E+03  0.43155004556E+03  0.00000000000E+00 0. -1.
         21   -1    0    0  503  502 -0.00000000000E+00 -0.00000000000E+00 -0.32854583464E+03  0.32854583464E+03  0.00000000000E+00 0. -1.
         21    1    1    2  503  501 -0.78204487734E+02 -0.51729649335E+02 -0.26461199770E+02  0.97427376108E+02  0.00000000000E+00 0. -1.
         21    1    1    2  504  506  0.21641493049E+03  0.59474506315E+02  0.32774454291E+03  0.39722679221E+03  0.00000000000E+00 0. -1.
         21    1    1    2  505  502  0.51095904433E+01 -0.30619716341E+02 -0.29241221889E+02  0.42646500453E+02  0.00000000000E+00 0. -1.
         21    1    1    2  506  505 -0.14332003320E+03  0.22874859362E+02 -0.16903791033E+03  0.22279521143E+03  0.00000000000E+00 0. -1.
<scales pt_clust_3="96.62581" pt_clust_4="210.73002" pt_clust_5="31.04311" pt_clust_6="14000.00000"></scales>
<clustering>
<clus scale="   31.043">  2  5  1 -1</clus>
<clus scale="   96.626">  2  3  1 -1</clus>
<clus scale="  210.730">  1  4  2 -1</clus>
<clus scale="  210.730">  1  3  2 -1</clus>
</clustering>
</event>
<event>
 6    0  0.1555973E+002  0.9430464E+02  0.7546771E-02  0.1292750E+00
         21   -1    0    0  505  501  0.00000000000E+00  0.00000000000E+00  0.31348427690E+03  0.31348427690E+03  0.00000000000E+00 0. -1.
         21   -1    0    0  504  502 -0.00000000000E+00 -0.00000000000E+00 -0.26132260630E+03  0.26132260630E+03  0.00000000000E+00 0. -1.
         21    1    1    2  503  502 -0.59232635280E+02  0.38101405012E+02 -0.58743407949E+02  0.91711559379E+02  0.00000000000E+00 0. -1.
         21    1    1    2  504  506 -0.37558234076E+02 -0.61047660036E+02 -0.15036221338E+03  0.16657200532E+03  0.00000000000E+00 0. -1.
         21    1    1    2  505  503  0.95097745187E+02  0.63420829280E+02  0.24934279861E+03  0.27429475741E+03  0.00000000000E+00 0. -1.
         21    1    1    2  506  501  0.16931241700E+01 -0.40474574256E+02  0.11924493324E+02  0.42228561090E+02  0.00000000000E+00 0. -1.
<scales pt_clust_3="69.11295" pt_clust_4="94.30464" pt_clust_5="14000.00000" pt_clust_6="40.50997"></scales>
<clustering>
<clus scale="   40.510">  1  6  2 -1</clus>
<clus scale="   69.113">  2  3  1 -1</clus>
<clus scale="   94.305">  2  4  1 -1</clus>
<clus scale="   40.510">  1  3  2 -1</clus>
</clustering>
</event>
<event>
 6    0  0.1555973E+002  0.9189154E+02  0.7546771E-02  0.1298335E+00
         21   -1    0    0  504  501  0.00000000000E+00  0.00000000000E+00  0.41929517040E+02  0.41929517040E+02  0.00000000000E+00 0. -1.
         21   -1    0    0  503  502 -0.00000000000E+00 -0.00000000000E+00 -0.81722345540E+03  0.81722345540E+03  0.00000000000E+00 0. -1.
         21    1    1    2  503  501 -0.84793988515E+02 -0.78261252260E+02 -0.10768577367E+03  0.15783241094E+03  0.00000000000E+00 0. -1.
         21    1    1    2  504  505  0.21923236754E+02  0.29273732385E+02 -0.37272712670E+02  0.52219104046E+02  0.00000000000E+00 0. -1.
         21    1    1    2  505  506  0.41697162826E+02  0.89450595980E+02 -0.30483388420E+03  0.32041185912E+03  0.00000000000E+00 0. -1.
         21    1    1    2  506  502  0.21173588934E+02 -0.40463076105E+02 -0.32550156782E+03  0.32868959833E+03  0.00000000000E+00 0. -1.
<scales pt_clust_3="14000.00000" pt_clust_4="36.57294" pt_clust_5="91.89154" pt_clust_6="44.96441"></scales>
<clustering>
<clus scale="   36.573">  1  4  2 -1</clus>
<clus scale="   44.964">  2  6  1 -1</clus>
<clus scale="   91.892">  2  5  1 -1</clus>
<clus scale="   36.573">  1  3  2 -1</clus>
</clustering>
</event>
<event>
 6    0  0.1555973E+002  0.1145508E+03  0.7546771E-02  0.1252367E+00
         21   -1    0    0  505  501  0.00000000000E+00  0.00000000000E+00  0.56421478645E+03  0.56421478645E+03  0.00000000000E+00 0.  1.
         21   -1    0    0  504  502 -0.00000000000E+00 -0.00000000000E+00 -0.16940661762E+03  0.16940661762E+03  0.00000000000E+00 0.  1.
         21    1    1    2  503  506 -0.32446798869E+02 -0.58639420434E+01  0.77666258405E+01  0.33874784871E+02  0.00000000000E+00 0.  1.
         21    1    1    2  504  503  0.66416117942E+01 -0.29288394888E+02 -0.12868782810E+03  0.13214567032E+03  0.00000000000E+00 0.  1.
         21    1    1    2  505  502  0.11254137179E+03  0.81256220638E+02  0.29884252318E+03  0.32950718872E+03  0.00000000000E+00 0.  1.
         21    1    1    2  506  501 -0.86736184716E+02 -0.46103883707E+02  0.21688684791E+03  0.23809376016E+03  0.00000000000E+00 0.  1.
<scales pt_clust_3="34.04385" pt_clust_4="30.03200" pt_clust_5="14000.00000" pt_clust_6="114.55080"></scales>
<clustering>
<clus scale="   30.032">  2  4  1 -1</clus>
<clus scale="   34.044">  2  3  1 -1</clus>
<clus scale="  114.551">  1  6  2 -1</clus>
<clus scale="  114.551">  1  3  2 -1</clus>
</clustering>
</event>
<event>
 6    0  0.1555973E+002  0.1414077E+03  0.7546771E-02  0.1211447E+00
         21   -1    0    0  505  501  0.00000000000E+00  0.00000000000E+00  0.38143242130E+03  0.38143242130E+03  0.00000000000E+00 0.  1.
         21   -1    0    0  504  502 -0.00000000000E+00 -0.00000000000E+00 -0.48172896798E+03  0.48172896798E+03  0.00000000000E+00 0.  1.
         21    1    1    2  503  502 -0.12438910284E+03 -0.48504680069E+02 -0.45271963621E+03  0.47199620963E+03  0.00000000000E+00 0.  1.
         21    1    1    2  504  501  0.26128174314E+02 -0.19127627706E+02  0.30357098231E+02  0.44385820344E+02  0.00000000000E+00 0. -1.
         21    1    1    2  505  506  0.54277329950E+02  0.62621380345E+02  0.18425966966E+03  0.20203735221E+03  0.00000000000E+00 0.  1.
         21    1    1    2  506  503  0.43983598576E+02  0.50109274295E+01  0.13780632163E+03  0.14474200710E+03  0.00000000000E+00 0.  1.
<scales pt_clust_3="133.02656" pt_clust_4="32.38129" pt_clust_5="38.21509" pt_clust_6="38.21509"></scales>
<clustering>
<clus scale="   32.381">  1  4  2 -1</clus>
<clus scale="   38.215">  5  6 -1 -1</clus>
<clus scale="  133.027">  2  3  1 -1</clus>
<clus scale="   32.381">  1  3  2 -1</clus>
</clustering>
</event>
<event>
 6    0  0.1555973E+002  0.1145338E+03  0.7546771E-02  0.1252397E+00
         21   -1    0    0  503  501  0.00000000000E+00  0.00000000000E+00  0.10530737137E+04  0.10530737137E+04  0.00000000000E+00 0.  1.
         21   -1    0    0  506  502 -0.00000000000E+00 -0.00000000000E+00 -0.55142324443E+03  0.55142324443E+03  0.00000000000E+00 0. -1.
         21    1    1    2  503  505  0.11570395155E+03  0.45159203339E+02  0.52462714509E+03  0.53912929750E+03  0.00000000000E+00 0.  1.
         21    1    1    2  504  501 -0.65736976515E+02  0.38026006069E+02  0.23723340236E+03  0.24909238129E+03  0.00000000000E+00 0.  1.
         21    1    1    2  505  502 -0.23415953581E+02 -0.10936585926E+03 -0.53114171163E+03  0.54278975293E+03  0.00000000000E+00 0. -1.
         21    1    1    2  506  504 -0.26551021455E+02  0.26180649852E+02  0.27093163347E+03  0.27348552645E+03  0.00000000000E+00 0.  1.
<scales pt_clust_3="104.41068" pt_clust_4="32.98859" pt_clust_5="111.84453" pt_clust_6="32.98859"></scales>
<clustering>
<clus scale="   32.989">  4  6 -1 -1</clus>
<clus scale="  111.845">  2  5  1 -1</clus>
<clus scale="  104.411">  2  3  1 -1</clus>
<clus scale="  114.534">  1  3  2 -1</clus>
</clustering>
</event>
<event>
 6    0  0.1555973E+002  0.1507523E+03  0.7546771E-02  0.1199552E+00
         21   -1    0    0  506  501  0.00000000000E+00  0.00000000000E+00  0.30163086893E+03  0.30163086893E+03  0.00000000000E+00 0.  1.
         21   -1    0    0  503  502 -0.00000000000E+00 -0.00000000000E+00 -0.40980991566E+03  0.40980991566E+03  0.00000000000E+00 0.  1.
         21    1    1    2  503  505 -0.36708519491E+02 -0.16604139692E+02 -0.18490572500E+02  0.44329607820E+02  0.00000000000E+00 0. -1.
         21    1    1    2  504  501 -0.48846372414E+01  0.11745794012E+03  0.15340413532E+03  0.19326938742E+03  0.00000000000E+00 0.  1.
         21    1    1    2  505  504 -0.88790449748E+02 -0.11605192228E+03  0.48584707326E+02  0.15398787750E+03  0.00000000000E+00 0.  1.
         21    1    1    2  506  502  0.13038360648E+03  0.15198121847E+02 -0.29167731687E+03  0.31985391185E+03  0.00000000000E+00 0.  1.
<scales pt_clust_3="37.41273" pt_clust_4="117.55946" pt_clust_5="37.41273" pt_clust_6="132.85221"></scales>
<clustering>
<clus scale="   37.413">  3  5 -1 -1</clus>
<clus scale="  117.559">  1  4  2 -1</clus>
<clus scale="  132.852">  2  6  1 -1</clus>
<clus scale="  117.559">  1  3  2 -1</clus>
</clustering>
</event>
<event>
 6    0  0.1555973E+002  0.8967381E+02  0.7546771E-02  0.1303644E+00
         21   -1    0    0  504  501  0.00000000000E+00  0.00000000000E+00  0.49390605116E+02  0.49390605116E+02  0.00000000000E+00 0.  1.
         21   -1    0    0  503  502 -0.00000000000E+00 -0.00000000000E+00 -0.59891389053E+03  0.59891389053E+03  0.00000000000E+00 0. -1.
         21    1    1    2  503  501  0.57786104102E+02  0.10671668774E+03 -0.21659459794E+03  0.24827586497E+03  0.00000000000E+00 0. -1.
         21    1    1    2  504  505 -0.15834553589E+02  0.25560625219E+02 -0.45795332446E+02  0.54784040767E+02  0.00000000000E+00 0.  1.
         21    1    1    2  505  506 -0.32336211273E+02 -0.79160709622E+02 -0.43953180918E+02  0.96145361928E+02  0.00000000000E+00 0.  1.
         21    1    1    2  506  502 -0.96153392398E+01 -0.53116603342E+02 -0.24318017412E+03  0.24909922798E+03  0.00000000000E+00 0. -1.
<scales pt_clust_3="89.67381" pt_clust_4="30.06790" pt_clust_5="14000.00000" pt_clust_6="52.52460"></scales>
<clustering>
<clus scale="   30.068">  1  4  2 -1</clus>
<clus scale="   52.525">  2  6  1 -1</clus>
<clus scale="   89.674">  2  3  1 -1</clus>
<clus scale="   30.068">  1  3  2 -1</clus>
</clustering>
</event>
<event>
 6    0  0.1555973E+002  0.1486742E+03  0.7546771E-02  0.1202112E+00
         21   -1    0    0  503  501  0.00000000000E+00  0.00000000000E+00  0.27946543590E+04  0.27946543590E+04  0.00000000000E+00 0. -1.
         21   -1    0    0  504  502 -0.00000000000E+00 -0.00000000000E+00 -0.95215264397E+02  0.95215264397E+02  0.00000000000E+00 0.  1.
         21    1    1    2  503  505  0.56398631143E+01  0.41637005918E+02  0.68986394419E+03  0.69114232240E+03  0.00000000000E+00 0. -1.
         21    1    1    2  504  506  0.85610399042E+02 -0.38086922212E+02  0.10112952641E+04  0.10156268337E+04  0.00000000000E+00 0. -1.
         21    1    1    2  505  502 -0.13687722515E+03  0.39859946672E+02 -0.35892890605E+02  0.14701186929E+03  0.00000000000E+00 0.  1.
         21    1    1    2  506  501  0.45626962998E+02 -0.43410030378E+02  0.10341727769E+04  0.10360885980E+04  0.00000000000E+00 0. -1.
<scales pt_clust_3="42.01724" pt_clust_4="34.11628" pt_clust_5="142.73156" pt_clust_6="34.11628"></scales>
<clustering>
<clus scale="   34.116">  4  6 -1 -1</clus>
<clus scale="   42.017">  1  3  2 -1</clus>
<clus scale="  142.732">  2  5  1 -1</clus>
<clus scale="   42.017">  1  3  2 -1</clus>
</clustering>
</event>
<event>
 6    0  0.1555973E+002  0.1497624E+03  0.7546771E-02  0.1200765E+00
         21   -1    0    0  504  501  0.00000000000E+00  0.00000000000E+00  0.33106393859E+03  0.33106393859E+03  0.00000000000E+00 0.  1.
         21   -1    0    0  505  502 -0.00000000000E+00 -0.00000000000E+00 -0.32267086986E+03  0.32267086986E+03  0.00000000000E+00 0.  1.
         21    1    1    2  503  502  0.62469784056E+02 -0.12192243041E+03 -0.27860255696E+03  0.31046245779E+03  0.00000000000E+00 0.  1.
         21    1    1    2  504  506  0.94589842421E+01  0.81922588066E+02  0.16923433163E+03  0.18825791304E+03  0.00000000000E+00 0.  1.
         21    1    1    2  505  501 -0.29720110844E+02 -0.86305653134E+01  0.16657851545E+02  0.35146204124E+02  0.00000000000E+00 0. -1.
         21    1    1    2  506  503 -0.42208657454E+02  0.48630407657E+02  0.10110344251E+03  0.11986823349E+03  0.00000000000E+00 0.  1.
<scales pt_clust_3="136.69743" pt_clust_4="58.15494" pt_clust_5="30.94789" pt_clust_6="58.15494"></scales>
<clustering>
<clus scale="   30.948">  1  5  2 -1</clus>
<clus scale="   58.155">  4  6 -1 -1</clus>
<clus scale="  136.697">  2  3  1 -1</clus>
<clus scale="   30.948">  1  3  2 -1</clus>
</clustering>
</event>
<event>
 6    0  0.1555973E+002  0.1028048E+03  0.7546771E-02  0.1274506E+00
         21   -1    0    0  506  501  0.00000000000E+00  0.00000000000E+00  0.14003886263E+04  0.14003886263E+04  0.00000000000E+00 0.  1.
         21   -1    0    0  505  502 -0.00000000000E+00 -0.00000000000E+00 -0.22452743684E+03  0.22452743684E+03  0.00000000000E+00 0. -1.
         21    1    1    2  503  502  0.32983079458E+02 -0.34809439209E+00 -0.21148883445E+03  0.21404563018E+03  0.00000000000E+00 0. -1.
         21    1    1    2  504  503 -0.98491956836E+02 -0.46997336422E+02  0.75742650214E+03  0.76524788228E+03  0.00000000000E+00 0.  1.
         21    1    1    2  505  501  0.85565396757E+02  0.19380728967E+02  0.26641870431E+03  0.28049238098E+03  0.00000000000E+00 0.  1.
         21    1    1    2  506  504 -0.20056519379E+02  0.27964701847E+02  0.36350481749E+03  0.36513016974E+03  0.00000000000E+00 0.  1.
<scales pt_clust_3="32.98492" pt_clust_4="102.80481" pt_clust_5="14000.00000" pt_clust_6="33.11662"></scales>
<clustering>
<clus scale="   32.985">  2  3  1 -1</clus>
<clus scale="   33.117">  1  6  2 -1</clus>
<clus scale="  102.805">  1  4  2 -1</clus>
<clus scale="   33.117">  1  3  2 -1</clus>
</clustering>
</event>
<event>
 6    0  0.1555973E+002  0.1183822E+03  0.7546771E-02  0.1245790E+00
         21   -1    0    0  503  501  0.00000000000E+00  0.00000000000E+00  0.11826682682E+03  0.11826682682E+03  0.00000000000E+00 0.  1.
         21   -1    0    0  505  502 -0.00000000000E+00 -0.00000000000E+00 -0.79108636233E+03  0.79108636233E+03  0.00000000000E+00 0.  1.
         21    1    1    2  503  504 -0.89226363749E+02  0.11742565723E+03  0.20300635932E+02  0.14886989213E+03  0.00000000000E+00 0.  1.
         21    1    1    2  504  502  0.11188996970E+03 -0.48859050877E+02 -0.55962481623E+03  0.57278836154E+03  0.00000000000E+00 0.  1.
         21    1    1    2  505  506 -0.55090725168E+02 -0.50785997154E+02 -0.13064088169E+03  0.15060293980E+03  0.00000000000E+00 0.  1.
         21    1    1    2  506  501  0.32427119218E+02 -0.17780609200E+02 -0.28544735157E+01  0.37091995677E+02  0.00000000000E+00 0.  1.
<scales pt_clust_3="14000.00000" pt_clust_4="118.38222" pt_clust_5="73.84561" pt_clust_6="36.98200"></scales>
<clustering>
<clus scale="   36.982">  1  6  2 -1</clus>
<clus scale="   73.846">  2  5  1 -1</clus>
<clus scale="  118.382">  2  4  1 -1</clus>
<clus scale="   36.982">  1  3  2 -1</clus>
</clustering>
</event>
<event>
 6    0  0.1555973E+002  0.1908607E+03  0.7546771E-02  0.1157687E+00
         21   -1    0    0  505  501  0.00000000000E+00  0.00000000000E+00  0.26658466425E+03  0.26658466425E+03  0.00000000000E+00 0.  1.
         21   -1    0    0  503  502 -0.00000000000E+00 -0.00000000000E+00 -0.43698425272E+03  0.43698425272E+03  0.00000000000E+00 0.  1.
         21    1    1    2  503  504  0.98900507207E+01 -0.41594311652E+02 -0.17704028080E+03  0.18212951680E+03  0.00000000000E+00 0. -1.
         21    1    1    2  504  501 -0.16159911311E+03 -0.12439659595E+03 -0.41390049010E+02  0.20809114013E+03  0.00000000000E+00 0.  1.
         21    1    1    2  505  506  0.11281511511E+03  0.14997887284E+03  0.12510187359E+03  0.22554687156E+03  0.00000000000E+00 0.  1.
         21    1    1    2  506  502  0.38893947287E+02  0.16012034768E+02 -0.77071132248E+02  0.87801388480E+02  0.00000000000E+00 0. -1.
<scales pt_clust_3="44.68527" pt_clust_4="14000.00000" pt_clust_5="190.86071" pt_clust_6="42.06096"></scales>
<clustering>
<clus scale="   42.061">  2  6  1 -1</clus>
<clus scale="   44.685">  2  3  1 -1</clus>
<clus scale="  190.861">  1  5  2 -1</clus>
<clus scale="  190.861">  1  3  2 -1</clus>
</clustering>
</event>
<event>
 6    0  0.1555973E+002  0.9297442E+02  0.7546771E-02  0.1295804E+00
         21   -1    0    0  503  501  0.00000000000E+00  0.00000000000E+00  0.11832060165E+03  0.11832060165E+03  0.00000000000E+00 0.  1.
         21   -1    0    0  504  502 -0.00000000000E+00 -0.00000000000E+00 -0.25804620682E+03  0.25804620682E+03  0.00000000000E+00 0.  1.
         21    1    1    2  503  505 -0.43649634446E+02 -0.30574691067E+02 -0.32242992738E+02  0.62287341425E+02  0.00000000000E+00 0.  1.
         21    1    1    2  504  506  0.26264154405E+02  0.48776436785E+02 -0.50810652433E+02  0.75170931834E+02  0.00000000000E+00 0.  1.
         21    1    1    2  505  502 -0.56665251331E+02 -0.36012690696E+02 -0.12154897695E+03  0.13885970761E+03  0.00000000000E+00 0.  1.
         21    1    1    2  506  501  0.74050731373E+02  0.17810944978E+02  0.64877016941E+02  0.10004882760E+03  0.00000000000E+00 0.  1.
<scales pt_clust_3="42.83122" pt_clust_4="55.39807" pt_clust_5="42.83122" pt_clust_6="79.58035"></scales>
<clustering>
<clus scale="   42.831">  3  5 -1 -1</clus>
<clus scale="   55.398">  2  4  1 -1</clus>
<clus scale="   79.580">  1  6  2 -1</clus>
<clus scale="   79.580">  1  3  2 -1</clus>
</clustering>
</event>
<event>
 6    0  0.1555973E+002  0.6795402E+02  0.7546771E-02  0.1367192E+00
         21   -1    0    0  505  501  0.00000000000E+00  0.00000000000E+00  0.50977506395E+03  0.50977506395E+03  0.00000000000E+00 0.  1.
         21   -1    0    0  503  502 -0.00000000000E+00 -0.00000000000E+00 -0.28744202387E+03  0.28744202387E+03  0.00000000000E+00 0.  1.
         21    1    1    2  503  504 -0.29019351619E+02 -0.16534127532E+02 -0.22461956360E+03  0.22708907612E+03  0.00000000000E+00 0.  1.
         21    1    1    2  504  506  0.49078170419E+02  0.68177895538E+02 -0.61534133623E+00  0.84007564520E+02  0.00000000000E+00 0.  1.
         21    1    1    2  505  502 -0.38364440367E+02 -0.11307317275E+03  0.34593750797E+03  0.36596465963E+03  0.00000000000E+00 0.  1.
         21    1    1    2  506  501  0.18305621567E+02  0.61429404745E+02  0.10163043705E+03  0.12015578755E+03  0.00000000000E+00 0.  1.
<scales pt_clust_3="33.39910" pt_clust_4="14000.00000" pt_clust_5="67.95402" pt_clust_6="60.56896"></scales>
<clustering>
<clus scale="   33.399">  2  3  1 -1</clus>
<clus scale="   60.569">  1  6  2 -1</clus>
<clus scale="   67.954">  1  5  2 -1</clus>
<clus scale="   60.569">  1  3  2 -1</clus>
</clustering>
</event>
<event>
 6    0  0.1555973E+002  0.1403773E+03  0.7546771E-02  0.1212822E+00
         21   -1    0    0  505  501  0.00000000000E+00  0.00000000000E+00  0.73461212631E+03  0.73461212631E+03  0.00000000000E+00 0.  1.
         21   -1    0    0  506  502 -0.00000000000E+00 -0.00000000000E+00 -0.15220740016E+04  0.15220740016E+04  0.00000000000E+00 0.  1.
         21    1    1    2  503  502 -0.29463946479E+02  0.28303681363E+02 -0.13938425897E+04  0.13944412456E+04  0.00000000000E+00 0.  1.
         21    1    1    2  504  503  0.70977959361E+02 -0.15319291902E+02 -0.73653615225E+01  0.72984929745E+02  0.00000000000E+00 0.  1.
         21    1    1    2  505  504  0.92166066297E+02 -0.19557476010E+02 -0.53753914491E+02  0.10847378470E+03  0.00000000000E+00 0.  1.
         21    1    1    2  506  501 -0.13368007918E+03  0.65730865495E+01  0.66749999047E+03  0.68078616784E+03  0.00000000000E+00 0.  1.
<scales pt_clust_3="40.85612" pt_clust_4="32.36691" pt_clust_5="32.36691" pt_clust_6="135.44904"></scales>
<clustering>
<clus scale="   32.367">  4  5 -1 -1</clus>
<clus scale="   40.856">  2  3  1 -1</clus>
<clus scale="  135.449">  1  6  2 -1</clus>
<clus scale="  135.449">  1  3  2 -1</clus>
</clustering>
</event>
<event>
 6    0  0.1555973E+002  0.1301349E+03  0.7546771E-02  0.1227256E+00
         21   -1    0    0  505  501  0.00000000000E+00  0.00000000000E+00  0.25534628965E+04  0.25534628965E+04  0.00000000000E+00 0.  1.
         21   -1    0    0  506  502 -0.00000000000E+00 -0.00000000000E+00 -0.14420828166E+03  0.14420828166E+03  0.00000000000E+00 0. -1.
         21    1    1    2  503  501 -0.92928313251E+02 -0.66684378257E+02  0.14017420862E+04  0.14064008511E+04  0.00000000000E+00 0.  1.
         21    1    1    2  504  502  0.28631929311E+02  0.39206987777E+02 -0.11842258348E+03  0.12798782577E+03  0.00000000000E+00 0. -1.
         21    1    1    2  505  504 -0.35076312311E+02  0.91863351645E+01  0.10051637536E+04  0.10058175322E+04  0.00000000000E+00 0.  1.
         21    1    1    2  506  503  0.99372696251E+02  0.18291055315E+02  0.12077135848E+03  0.15746496910E+03  0.00000000000E+00 0.  1.
<scales pt_clust_3="14000.00000" pt_clust_4="48.50781" pt_clust_5="36.25929" pt_clust_6="130.13492"></scales>
<clustering>
<clus scale="   36.259">  1  5  2 -1</clus>
<clus scale="   48.508">  2  4  1 -1</clus>
<clus scale="  130.135">  2  6  1 -1</clus>
<clus scale="   36.259">  1  3  2 -1</clus>
</clustering>
</event>
<event>
 6    0  0.1555973E+002  0.1526166E+03  0.7546771E-02  0.1197294E+00
         21   -1    0    0  502  501  0.00000000000E+00  0.00000000000E+00  0.99092985804E+02  0.99092985804E+02  0.00000000000E+00 0. -1.
         21   -1    0    0  506  502 -0.00000000000E+00 -0.00000000000E+00 -0.14310053952E+04  0.14310053952E+04  0.00000000000E+00 0.  1.
         21    1    1    2  503  501 -0.63546664167E+02 -0.78757096251E+02 -0.53382124940E+02  0.11441376665E+03  0.00000000000E+00 0.  1.
         21    1    1    2  504  505  0.41740632840E+02  0.14029349792E+03 -0.66930822365E+02  0.16094806918E+03  0.00000000000E+00 0. -1.
         21    1    1    2  505  503  0.66824824003E+02  0.54203315509E+02 -0.83759374816E+02  0.12007992915E+03  0.00000000000E+00 0.  1.
         21    1    1    2  506  504 -0.45018792676E+02 -0.11573971718E+03 -0.11278400873E+04  0.11346566161E+04  0.00000000000E+00 0.  1.
<scales pt_clust_3="101.19713" pt_clust_4="62.54100" pt_clust_5="62.54100" pt_clust_6="128.98871"></scales>
<clustering>
<clus scale="   62.541">  4  5 -1 -1</clus>
<clus scale="  101.197">  1  3  2 -1</clus>
<clus scale="  128.989">  2  6  1 -1</clus>
<clus scale="  101.197">  1  3  2 -1</clus>
</clustering>
</event>
<event>
 6    0  0.1555973E+002  0.1347210E+03  0.7546771E-02  0.1220614E+00
         21   -1    0    0  506  501  0.00000000000E+00  0.00000000000E+00  0.19512123575E+03  0.19512123575E+03  0.00000000000E+00 0.  1.
         21   -1    0    0  505  502 -0.00000000000E+00 -0.00000000000E+00 -0.41907786572E+03  0.41907786572E+03  0.00000000000E+00 0. -1.
         21    1    1    2  503  501  0.79490078336E+02  0.19304841035E+02  0.67000624951E+02  0.10573756752E+03  0.00000000000E+00 0.  1.
         21    1    1    2  504  502 -0.12349267053E+03 -0.25830046705E+02 -0.37454378854E+03  0.39522231784E+03  0.00000000000E+00 0. -1.
         21    1    1    2  505  503  0.23382925516E+02  0.30890395102E+02  0.66682499562E+02  0.77120253261E+02  0.00000000000E+00 0.  1.
         21    1    1    2  506  504  0.20619666678E+02 -0.24365189431E+02  0.16904034058E+02  0.36118962850E+02  0.00000000000E+00 0.  1.
<scales pt_clust_3="32.25921" pt_clust_4="125.24518" pt_clust_5="32.25921" pt_clust_6="31.91917"></scales>
<clustering>
<clus scale="   31.919">  1  6  2 -1</clus>
<clus scale="   32.259">  3  5 -1 -1</clus>
<clus scale="  125.245">  2  4  1 -1</clus>
<clus scale="   31.919">  1  3  2 -1</clus>
</clustering>
</event>
<event>
 6    0  0.1555973E+002  0.7735592E+03  0.7546771E-02  0.9599098E-01
         21   -1    0    0  504  501  0.00000000000E+00  0.00000000000E+00  0.43974880084E+03  0.43974880084E+03  0.00000000000E+00 0. -1.
         21   -1    0    0  505  502 -0.00000000000E+00 -0.00000000000E+00 -0.13644214843E+04  0.13644214843E+04  0.00000000000E+00 0. -1.
         21    1    1    2  503  502  0.11385411411E+03  0.18867396938E+03 -0.10498885498E+03  0.24409687768E+03  0.00000000000E+00 0. -1.
         21    1    1    2  504  506  0.60130754675E+02  0.71258431763E+02 -0.10152379328E+02  0.93789885175E+02  0.00000000000E+00 0.  1.
         21    1    1    2  505  501 -0.35476350625E+03 -0.67622070860E+03 -0.57148889871E+03  0.95379827712E+03  0.00000000000E+00 0. -1.
         21    1    1    2  506  503  0.18077863746E+03  0.41628830745E+03 -0.23804255043E+03  0.51248524515E+03  0.00000000000E+00 0. -1.
<scales pt_clust_3="30.83467" pt_clust_4="42.45025" pt_clust_5="763.63053" pt_clust_6="42.45025"></scales>
<clustering>
<clus scale="   30.835">  3  6 -1 -1</clus>
<clus scale="   42.450">  3  4 -1 -1</clus>
<clus scale="  763.631">  2  5  1 -1</clus>
<clus scale="  773.559">  1  3  2 -1</clus>
</clustering>
</event>
<event>
 6    0  0.1555973E+002  0.1162317E+03  0.7546771E-02  0.1249446E+00
         21   -1    0    0  506  501  0.00000000000E+00  0.00000000000E+00  0.88402454694E+03  0.88402454694E+03  0.00000000000E+00 0. -1.
         21   -1    0    0  505  502 -0.00000000000E+00 -0.00000000000E+00 -0.96278881546E+03  0.96278881546E+03  0.00000000000E+00 0.  1.
         21    1    1    2  503  504  0.50763501614E+02  0.13749377631E+03  0.66372797562E+03  0.67971780707E+03  0.00000000000E+00 0. -1.
         21    1    1    2  504  501 -0.25158676344E+02  0.17646564468E+02  0.16296303857E+03  0.16583519582E+03  0.00000000000E+00 0. -1.
         21    1    1    2  505  503 -0.37619876383E+02 -0.10980457761E+03 -0.93737123552E+03  0.94453011257E+03  0.00000000000E+00 0.  1.
         21    1    1    2  506  502  0.12015051112E+02 -0.45335763171E+02  0.31915952812E+02  0.56730246954E+02  0.00000000000E+00 0.  1.
<scales pt_clust_3="116.23166" pt_clust_4="30.73044" pt_clust_5="14000.00000" pt_clust_6="45.46965"></scales>
<clustering>
<clus scale="   30.730">  1  4  2 -1</clus>
<clus scale="   45.470">  1  6  2 -1</clus>
<clus scale="  116.232">  1  3  2 -1</clus>
<clus scale="   30.730">  1  3  2 -1</clus>
</clustering>
</event>
<event>
 6    0  0.1555973E+002  0.1093559E+03  0.7546771E-02  0.1261767E+00
         21   -1    0    0  506  501  0.00000000000E+00  0.00000000000E+00  0.52838398330E+03  0.52838398330E+03  0.00000000000E+00 0. -1.
         21   -1    0    0  505  502 -0.00000000000E+00 -0.00000000000E+00 -0.87623468434E+02  0.87623468434E+02  0.00000000000E+00 0. -1.
         21    1    1    2  503  501 -0.99974365926E+02  0.99330965121E+02  0.40192794394E+03  0.42591969501E+03  0.00000000000E+00 0. -1.
         21    1    1    2  504  502 -0.11442663845E+02 -0.39832405711E+02 -0.11185563850E+02  0.42926354833E+02  0.00000000000E+00 0. -1.
         21    1    1    2  505  503  0.81786995981E+02 -0.44808426510E+02  0.78722547533E+01  0.93588889259E+02  0.00000000000E+00 0. -1.
         21    1    1    2  506  504  0.29630033790E+02 -0.14690132900E+02  0.42145880016E+02  0.53572512629E+02  0.00000000000E+00 0. -1.
<scales pt_clust_3="109.35590" pt_clust_4="41.65338" pt_clust_5="14000.00000" pt_clust_6="33.07172"></scales>
<clustering>
<clus scale="   33.072">  1  6  2 -1</clus>
<clus scale="   41.653">  2  4  1 -1</clus>
<clus scale="  109.356">  1  3  2 -1</clus>
<clus scale="   33.072">  1  3  2 -1</clus>
</clustering>
</event>
<event>
 6    0  0.1555973E+002  0.7308289E+02  0.7546771E-02  0.1349913E+00
         21   -1    0    0  505  501  0.00000000000E+00  0.00000000000E+00  0.15322318666E+02  0.15322318666E+02  0.00000000000E+00 0.  1.
         21   -1    0    0  503  502 -0.00000000000E+00 -0.00000000000E+00 -0.15485846691E+04  0.15485846691E+04  0.00000000000E+00 0. -1.
         21    1    1    2  503  504  0.54423842363E+02  0.71786096831E+02 -0.48334665748E+03  0.49166979734E+03  0.00000000000E+00 0. -1.
         21    1    1    2  504  501 -0.54532386301E+02 -0.39220088580E+02 -0.19426259944E+03  0.20554793612E+03  0.00000000000E+00 0.  1.
         21    1    1    2  505  506 -0.89592978056E+00 -0.70368779614E+02 -0.24610432896E+03  0.25596856949E+03  0.00000000000E+00 0.  1.
         21    1    1    2  506  502  0.10044737183E+01  0.37802771363E+02 -0.60954876454E+03  0.61072068480E+03  0.00000000000E+00 0. -1.
<scales pt_clust_3="14000.00000" pt_clust_4="73.08289" pt_clust_5="60.25976" pt_clust_6="37.81611"></scales>
<clustering>
<clus scale="   37.816">  2  6  1 -1</clus>
<clus scale="   60.260">  2  5  1 -1</clus>
<clus scale="   73.083">  1  4  2 -1</clus>
<clus scale="   73.083">  1  3  2 -1</clus>
</clustering>
</event>
<event>
 6    0  0.1555973E+002  0.1060666E+03  0.7546771E-02  0.1268032E+00
         21   -1    0    0  504  501  0.00000000000E+00  0.00000000000E+00  0.54779016933E+02  0.54779016933E+02  0.00000000000E+00 0.  1.
         21   -1    0    0  506  502 -0.00000000000E+00 -0.00000000000E+00 -0.21181070196E+04  0.21181070196E+04  0.00000000000E+00 0. -1.
         21    1    1    2  503  505  0.80514735312E+02 -0.47544719324E+02 -0.11562743407E+03  0.14870382123E+03  0.00000000000E+00 0.  1.
         21    1    1    2  504  503 -0.70891627641E+01 -0.31470046401E+02 -0.70384076672E+02  0.77424403764E+02  0.00000000000E+00 0. -1.
         21    1    1    2  505  502  0.33850570555E+02  0.25635725157E+02 -0.18076614953E+04  0.18081601514E+04  0.00000000000E+00 0. -1.
         21    1    1    2  506  501 -0.10727614310E+03  0.53379040569E+02 -0.69654996696E+02  0.13859766021E+03  0.00000000000E+00 0.  1.
<scales pt_clust_3="106.06656" pt_clust_4="32.25864" pt_clust_5="42.34257" pt_clust_6="14000.00000"></scales>
<clustering>
<clus scale="   32.259">  1  4  2 -1</clus>
<clus scale="   42.343">  2  5  1 -1</clus>
<clus scale="  106.067">  2  3  1 -1</clus>
<clus scale="   32.259">  1  3  2 -1</clus>
</clustering>
</event>
<event>
 6    0  0.1699664E+002  0.1701177E+03  0.7546771E-02  0.1177725E+00
         21   -1    0    0  505  501  0.00000000000E+00  0.00000000000E+00  0.10954265559E+04  0.10954265559E+04  0.00000000000E+00 0.  1.
         21   -1    0    0  504  502 -0.00000000000E+00 -0.00000000000E+00 -0.27383917313E+03  0.27383917313E+03  0.00000000000E+00 0. -1.
         21    1    1    2  503  501  0.12164768442E+02  0.30073693364E+02  0.34439349468E+02  0.47312550297E+02  0.00000000000E+00 0.  1.
         21    1    1    2  504  503  0.69736814118E+02 -0.13645644993E+03 -0.23924611318E+03  0.28411668139E+03  0.00000000000E+00 0. -1.
         21    1    1    2  505  506 -0.37172017174E+02  0.60403914723E+02  0.78039900794E+03  0.78361534146E+03  0.00000000000E+00 0.  1.
         21    1    1    2  506  502 -0.44729565387E+02  0.45978841844E+02  0.24599513858E+03  0.25422115592E+03  0.00000000000E+00 0.  1.
<scales pt_clust_3="32.44085" pt_clust_4="152.79249" pt_clust_5="65.80107" pt_clust_6="65.80107"></scales>
<clustering>
<clus scale="   32.441">  1  3  2 -1</clus>
<clus scale="   65.801">  5  6 -1 -1</clus>
<clus scale="  152.792">  2  4  1 -1</clus>
<clus scale="   32.441">  1  3  2 -1</clus>
</clustering>
</event>
<event>
 6    0  0.1555973E+002  0.1235237E+03  0.7546771E-02  0.1237395E+00
         21   -1    0    0  506  501  0.00000000000E+00  0.00000000000E+00  0.88333246629E+03  0.88333246629E+03  0.00000000000E+00 0.  1.
         21   -1    0    0  504  502 -0.00000000000E+00 -0.00000000000E+00 -0.53520472387E+02  0.53520472387E+02  0.00000000000E+00 0.  1.
         21    1    1    2  503  501 -0.37236396334E+02  0.11219349059E+03  0.54723249171E+03  0.55985473877E+03  0.00000000000E+00 0.  1.
         21    1    1    2  504  505  0.33618611066E+02  0.12845795932E+02  0.39532947459E+02  0.53461008389E+02  0.00000000000E+00 0.  1.
         21    1    1    2  505  503  0.16384981190E+02  0.38376279989E+02  0.90345991344E+02  0.99516855991E+02  0.00000000000E+00 0.  1.
         21    1    1    2  506  502 -0.12767195922E+02 -0.16341556651E+03  0.15270056339E+03  0.22402033552E+03  0.00000000000E+00 0.  1.
<scales pt_clust_3="123.52368" pt_clust_4="34.86792" pt_clust_5="80.83123" pt_clust_6="14000.00000"></scales>
<clustering>
<clus scale="   34.868">  4  5 -1 -1</clus>
<clus scale="   80.831">  2  4  1 -1</clus>
<clus scale="  123.524">  1  3  2 -1</clus>
<clus scale="  123.524">  1  3  2 -1</clus>
</clustering>
</event>
<event>
 6    0  0.1555973E+002  0.1138555E+03  0.7546771E-02  0.1253592E+00
         21   -1    0    0  506  501  0.00000000000E+00  0.00000000000E+00  0.18179432215E+03  0.18179432215E+03  0.00000000000E+00 0.  1.
         21   -1    0    0  505  502 -0.00000000000E+00 -0.00000000000E+00 -0.17797438437E+03  0.17797438437E+03  0.00000000000E+00 0. -1.
         21    1    1    2  503  502 -0.42926178108E+02  0.46141949992E+02  0.49118990529E+02  0.79902512768E+02  0.00000000000E+00 0.  1.
         21    1    1    2  504  501  0.31367485766E+02  0.37676451736E+01  0.15610511007E+02  0.35239216327E+02  0.00000000000E+00 0. -1.
         21    1    1    2  505  504  0.22905933221E+02 -0.10554265323E+03 -0.12084175916E+03  0.16206993610E+03  0.00000000000E+00 0. -1.
         21    1    1    2  506  503 -0.11347240879E+02  0.55633058067E+02  0.59932195408E+02  0.82557041322E+02  0.00000000000E+00 0.  1.
<scales pt_clust_3="34.27157" pt_clust_4="31.59295" pt_clust_5="108.47062" pt_clust_6="34.27157"></scales>
<clustering>
<clus scale="   31.593">  1  4  2 -1</clus>
<clus scale="   34.272">  3  6 -1 -1</clus>
<clus scale="  108.471">  2  5  1 -1</clus>
<clus scale="   31.593">  1  3  2 -1</clus>
</clustering>
</event>
<event>
 6    0  0.1555973E+002  0.8039329E+02  0.7546771E-02  0.1327939E+00
         21   -1    0    0  504  501  0.00000000000E+00  0.00000000000E+00  0.34164134898E+04  0.34164134898E+04  0.00000000000E+00 0.  1.
         21   -1    0    0  503  502 -0.00000000000E+00 -0.00000000000E+00 -0.77751752461E+01  0.77751752461E+01  0.00000000000E+00 0.  1.
         21    1    1    2  503  501  0.28363808063E+02  0.84948997191E+02  0.13697021649E+04  0.13726269916E+04  0.00000000000E+00 0.  1.
         21    1    1    2  504  506 -0.49798264112E+02 -0.14998169221E+02  0.59075828333E+03  0.59304313630E+03  0.00000000000E+00 0.  1.
         21    1    1    2  505  502 -0.46535236003E+02  0.21440334477E+01  0.16298248021E+03  0.16950933285E+03  0.00000000000E+00 0.  1.
         21    1    1    2  506  505  0.67969692052E+02 -0.72094861417E+02  0.12851953862E+04  0.12890092043E+04  0.00000000000E+00 0.  1.
<scales pt_clust_3="14000.00000" pt_clust_4="63.25534" pt_clust_5="46.58460" pt_clust_6="80.39329"></scales>
<clustering>
<clus scale="   46.585">  2  5  1 -1</clus>
<clus scale="   63.255">  1  4  2 -1</clus>
<clus scale="   80.393">  2  6  1 -1</clus>
<clus scale="   63.255">  1  3  2 -1</clus>
</clustering>
</event>
<event>
 6    0  0.1555973E+002  0.1870017E+03  0.7546771E-02  0.1161194E+00
         21   -1    0    0  505  501  0.00000000000E+00  0.00000000000E+00  0.12492817374E+04  0.12492817374E+04  0.00000000000E+00 0. -1.
         21   -1    0    0  506  502 -0.00000000000E+00 -0.00000000000E+00 -0.26180419951E+03  0.26180419951E+03  0.00000000000E+00 0. -1.
         21    1    1    2  503  502  0.77533036069E+02 -0.56012508988E+02 -0.21916838463E+03  0.23913082960E+03  0.00000000000E+00 0. -1.
         21    1    1    2  504  503  0.60042792494E+02  0.24993127092E+02  0.18754248267E+03  0.19849931017E+03  0.00000000000E+00 0. -1.
         21    1    1    2  505  504  0.94427531004E+02 -0.96242290988E+01  0.39879371850E+03  0.40993367062E+03  0.00000000000E+00 0. -1.
         21    1    1    2  506  501 -0.23200335957E+03  0.40643610995E+02  0.62030972136E+03  0.66352212652E+03  0.00000000000E+00 0. -1.
<scales pt_clust_3="95.64922" pt_clust_4="39.72653" pt_clust_5="39.72653" pt_clust_6="180.73844"></scales>
<clustering>
<clus scale="   39.727">  4  5 -1 -1</clus>
<clus scale="   95.649">  2  3  1 -1</clus>
<clus scale="  180.738">  2  6  1 -1</clus>
<clus scale="  187.002">  1  3  2 -1</clus>
</clustering>
</event>
<event>
 6    0  0.1555973E+002  0.8885888E+02  0.7546771E-02  0.1305639E+00
         21   -1    0    0  504  501  0.00000000000E+00  0.00000000000E+00  0.51997307625E+03  0.51997307625E+03  0.00000000000E+00 0. -1.
         21   -1    0    0  506  502 -0.00000000000E+00 -0.00000000000E+00 -0.20986912978E+03  0.20986912978E+03  0.00000000000E+00 0. -1.
         21    1    1    2  503  502  0.22259480267E+02  0.63141614360E+02  0.12934733698E+03  0.14564711295E+03  0.00000000000E+00 0. -1.
         21    1    1    2  504  503  0.57851426216E+02  0.10882282437E+02  0.23244631464E+03  0.23978427966E+03  0.00000000000E+00 0. -1.
         21    1    1    2  505  501  0.12005694342E+02 -0.58516864985E+02  0.12835568568E+03  0.14157521757E+03  0.00000000000E+00 0. -1.
         21    1    1    2  506  505 -0.92116600826E+02 -0.15507031813E+02 -0.18004539083E+03  0.20283559584E+03  0.00000000000E+00 0. -1.
<scales pt_clust_3="14000.00000" pt_clust_4="58.86605" pt_clust_5="66.38266" pt_clust_6="88.85888"></scales>
<clustering>
<clus scale="   58.866">  1  4  2 -1</clus>
<clus scale="   66.383">  1  5  2 -1</clus>
<clus scale="   88.859">  2  6  1 -1</clus>
<clus scale="   58.866">  1  3  2 -1</clus>
</clustering>
</event>
<event>
 6    0  0.1555973E+002  0.7098826E+02  0.7546771E-02  0.1356764E+00
         21   -1    0    0  503  501  0.00000000000E+00  0.00000000000E+00  0.32407720244E+03  0.32407720244E+03  0.00000000000E+00 0. -1.
         21   -1    0    0  504  502 -0.00000000000E+00 -0.00000000000E+00 -0.53198262528E+03  0.53198262528E+03  0.00000000000E+00 0. -1.
         21    1    1    2  503  506 -0.51449895126E+01  0.47112041666E+02  0.89559816605E+02  0.10132608814E+03  0.00000000000E+00 0. -1.
         21    1    1    2  504  505  0.49519618268E+02  0.49728975153E+02 -0.48910718301E+03  0.49411638309E+03  0.00000000000E+00 0. -1.
         21    1    1    2  505  501  0.24566998384E+02  0.23949498433E+02  0.20045475606E+02  0.39735839957E+02  0.00000000000E+00 0. -1.
         21    1    1    2  506  502 -0.68941627139E+02 -0.12079051525E+03  0.17159646796E+03  0.22088151653E+03  0.00000000000E+00 0. -1.
<scales pt_clust_3="54.95465" pt_clust_4="70.98826" pt_clust_5="34.30912" pt_clust_6="14000.00000"></scales>
<clustering>
<clus scale="   34.309">  1  5  2 -1</clus>
<clus scale="   54.955">  1  3  2 -1</clus>
<clus scale="   70.988">  2  4  1 -1</clus>
<clus scale="   34.309">  1  3  2 -1</clus>
</clustering>
</event>
<event>
 6    0  0.1555973E+002  0.1183388E+03  0.7546771E-02  0.1245863E+00
         21   -1    0    0  504  501  0.00000000000E+00  0.00000000000E+00  0.66782030624E+03  0.66782030624E+03  0.00000000000E+00 0.  1.
         21   -1    0    0  505  502 -0.00000000000E+00 -0.00000000000E+00 -0.45525891966E+03  0.45525891966E+03  0.00000000000E+00 0. -1.
         21    1    1    2  503  506 -0.53438919312E+02 -0.24025679119E+02  0.24010650839E+03  0.24715195069E+03  0.00000000000E+00 0.  1.
         21    1    1    2  504  503 -0.82605237892E+01 -0.39798347083E+02  0.97266064541E+02  0.10541741789E+03  0.00000000000E+00 0. -1.
         21    1    1    2  505  501  0.77121785957E+02  0.17933084468E+03  0.28444440430E+03  0.34498687056E+03  0.00000000000E+00 0.  1.
         21    1    1    2  506  502 -0.15422342856E+02 -0.11550681848E+03 -0.40925559066E+03  0.42552298676E+03  0.00000000000E+00 0. -1.
<scales pt_clust_3="70.29015" pt_clust_4="40.64658" pt_clust_5="14000.00000" pt_clust_6="118.33883"></scales>
<clustering>
<clus scale="   40.647">  1  4  2 -1</clus>
<clus scale="   70.290">  1  3  2 -1</clus>
<clus scale="  118.339">  2  6  1 -1</clus>
<clus scale="   40.647">  1  3  2 -1</clus>
</clustering>
</event>
<event>
 6    0  0.1555973E+002  0.2407353E+03  0.7546771E-02  0.1119304E+00
         21   -1    0    0  504  501  0.00000000000E+00  0.00000000000E+00  0.11345921417E+03  0.11345921417E+03  0.00000000000E+00 0.  1.
         21   -1    0    0  505  502 -0.00000000000E+00 -0.00000000000E+00 -0.82482796646E+03  0.82482796646E+03  0.00000000000E+00 0.  1.
         21    1    1    2  503  506  0.10526536673E+03  0.10524081379E+03 -0.98162206395E+02  0.17830379997E+03  0.00000000000E+00 0.  1.
         21    1    1    2  504  502 -0.22828258025E+03 -0.13524672363E+03 -0.27613473610E+03  0.38295561777E+03  0.00000000000E+00 0.  1.
         21    1    1    2  505  503  0.53504553209E+02  0.84184677038E+01 -0.27816744874E+03  0.28339149132E+03  0.00000000000E+00 0.  1.
         21    1    1    2  506  501  0.69512660316E+02  0.21587442140E+02 -0.58904361050E+02  0.93636271567E+02  0.00000000000E+00 0.  1.
<scales pt_clust_3="35.98923" pt_clust_4="235.16960" pt_clust_5="54.16279" pt_clust_6="35.98923"></scales>
<clustering>
<clus scale="   35.989">  3  6 -1 -1</clus>
<clus scale="   54.163">  2  5  1 -1</clus>
<clus scale="  235.170">  2  4  1 -1</clus>
<clus scale="  240.735">  1  3  2 -1</clus>
</clustering>
</event>
<event>
 6    0  0.1555973E+002  0.1401204E+03  0.7546771E-02  0.1213167E+00
         21   -1    0    0  503  501  0.00000000000E+00  0.00000000000E+00  0.64215163645E+02  0.64215163645E+02  0.00000000000E+00 0. -1.
         21   -1    0    0  506  502 -0.00000000000E+00 -0.00000000000E+00 -0.49829754879E+03  0.49829754879E+03  0.00000000000E+00 0. -1.
         21    1    1    2  503  504  0.82751187957E+02 -0.59339260024E+02 -0.23114163359E+02  0.10441825241E+03  0.00000000000E+00 0. -1.
         21    1    1    2  504  505  0.91939294691E+01 -0.30826619442E+02 -0.34859041449E+02  0.47433759877E+02  0.00000000000E+00 0. -1.
         21    1    1    2  505  502 -0.11206398395E+03  0.66894299893E+02 -0.33332859750E+03  0.35796806808E+03  0.00000000000E+00 0. -1.
         21    1    1    2  506  501  0.20118866523E+02  0.23271579572E+02 -0.42780582838E+02  0.52692632065E+02  0.00000000000E+00 0. -1.
<scales pt_clust_3="30.59328" pt_clust_4="30.59328" pt_clust_5="128.52777" pt_clust_6="30.76256"></scales>
<clustering>
<clus scale="   30.763">  2  6  1 -1</clus>
<clus scale="   30.593">  3  4 -1 -1</clus>
<clus scale="  128.528">  2  5  1 -1</clus>
<clus scale="  140.120">  1  3  2 -1</clus>
</clustering>
</event>
<event>
 6    0  0.1555973E+002  0.1350538E+03  0.7546771E-02  0.1220144E+00
         21   -1    0    0  503  501  0.00000000000E+00  0.00000000000E+00  0.46580989252E+03  0.46580989252E+03  0.00000000000E+00 0.  1.
         21   -1    0    0  505  502 -0.00000000000E+00 -0.00000000000E+00 -0.15105070015E+03  0.15105070015E+03  0.00000000000E+00 0.  1.
         21    1    1    2  503  502  0.97505041363E+02 -0.81763000902E+02  0.30985765871E+03  0.33496893896E+03  0.00000000000E+00 0.  1.
         21    1    1    2  504  506 -0.58588840659E+02  0.26395876092E+02  0.23812092208E+02  0.68530360132E+02  0.00000000000E+00 0.  1.
         21    1    1    2  505  504  0.11045978182E+02  0.32263195808E+02 -0.10543422038E+03  0.11081201318E+03  0.00000000000E+00 0.  1.
         21    1    1    2  506  501 -0.49962178886E+02  0.23103929001E+02  0.86523661832E+02  0.10254928040E+03  0.00000000000E+00 0.  1.
<scales pt_clust_3="124.01141" pt_clust_4="48.47509" pt_clust_5="34.10172" pt_clust_6="48.47509"></scales>
<clustering>
<clus scale="   34.102">  2  5  1 -1</clus>
<clus scale="   48.475">  4  6 -1 -1</clus>
<clus scale="  124.011">  1  3  2 -1</clus>
<clus scale="  124.011">  1  3  2 -1</clus>
</clustering>
</event>
<event>
 6    0  0.1555973E+002  0.1029297E+03  0.7546771E-02  0.1274253E+00
         21   -1    0    0  504  501  0.00000000000E+00  0.00000000000E+00  0.28604101221E+03  0.28604101221E+03  0.00000000000E+00 0. -1.
         21   -1    0    0  506  502 -0.00000000000E+00 -0.00000000000E+00 -0.56842709639E+03  0.56842709639E+03  0.00000000000E+00 0. -1.
         21    1    1    2  503  505 -0.65078617879E+02  0.84151688338E+02  0.12722433539E+03  0.16583957510E+03  0.00000000000E+00 0. -1.
         21    1    1    2  504  503 -0.42041209433E+02  0.42048231917E+01  0.96133430024E+01  0.43330822659E+02  0.00000000000E+00 0. -1.
         21    1    1    2  505  502  0.54357303558E+02 -0.87287829628E+02 -0.52078710758E+03  0.53084187200E+03  0.00000000000E+00 0. -1.
         21    1    1    2  506  501  0.52762523754E+02 -0.10686819014E+01  0.10156334500E+03  0.11445583883E+03  0.00000000000E+00 0. -1.
<scales pt_clust_3="102.92969" pt_clust_4="42.25096" pt_clust_5="14000.00000" pt_clust_6="35.27527"></scales>
<clustering>
<clus scale="   42.251">  1  4  2 -1</clus>
<clus scale="   35.275">  1  6  2 -1</clus>
<clus scale="  102.930">  1  3  2 -1</clus>
<clus scale="   42.251">  1  3  2 -1</clus>
</clustering>
</event>
<event>
 6    0  0.1555973E+002  0.4867538E+03  0.7546771E-02  0.1017295E+00
         21   -1    0    0  505  501  0.00000000000E+00  0.00000000000E+00  0.16274135232E+04  0.16274135232E+04  0.00000000000E+00 0. -1.
         21   -1    0    0  504  502 -0.00000000000E+00 -0.00000000000E+00 -0.13302898635E+03  0.13302898635E+03  0.00000000000E+00 0. -1.
         21    1    1    2  503  501  0.16506992563E+03  0.12333319982E+02  0.35023787684E+03  0.38738451376E+03  0.00000000000E+00 0. -1.
         21    1    1    2  504  506  0.53928823591E+02 -0.31451402935E+02  0.26702349279E+02  0.67900841067E+02  0.00000000000E+00 0. -1.
         21    1    1    2  505  502 -0.42838070289E+03  0.11564564321E+03  0.72595053940E+03  0.85081615350E+03  0.00000000000E+00 0. -1.
         21    1    1    2  506  503  0.20938195367E+03 -0.96527560261E+02  0.39149377135E+03  0.45434100125E+03  0.00000000000E+00 0. -1.
<scales pt_clust_3="109.37909" pt_clust_4="57.32791" pt_clust_5="443.71606" pt_clust_6="109.37909"></scales>
<clustering>
<clus scale="   57.328">  4  6 -1 -1</clus>
<clus scale="  109.379">  3  4 -1 -1</clus>
<clus scale="  443.716">  1  5  2 -1</clus>
<clus scale="  443.716">  1  3  2 -1</clus>
</clustering>
</event>
<event>
 6    0  0.1555973E+002  0.1398870E+03  0.7546771E-02  0.1213481E+00
         21   -1    0    0  504  501  0.00000000000E+00  0.00000000000E+00  0.83565886208E+03  0.83565886208E+03  0.00000000000E+00 0. -1.
         21   -1    0    0  503  502 -0.00000000000E+00 -0.00000000000E+00 -0.30744979115E+03  0.30744979115E+03  0.00000000000E+00 0. -1.
         21    1    1    2  503  501 -0.75788430228E+02 -0.32960789188E+02  0.11381062233E+03  0.14065261297E+03  0.00000000000E+00 0.  1.
         21    1    1    2  504  505  0.29246817728E+02 -0.22908347186E+02  0.32231626681E+03  0.32445021894E+03  0.00000000000E+00 0. -1.
         21    1    1    2  505  506  0.24550428006E+02 -0.75174798582E+02  0.36552799160E+03  0.37398487470E+03  0.00000000000E+00 0. -1.
         21    1    1    2  506  502  0.21991184495E+02  0.13104393496E+03 -0.27344580981E+03  0.30402094662E+03  0.00000000000E+00 0. -1.
<scales pt_clust_3="82.64563" pt_clust_4="31.90909" pt_clust_5="31.90909" pt_clust_6="131.91268"></scales>
<clustering>
<clus scale="   31.909">  4  5 -1 -1</clus>
<clus scale="   82.646">  1  3  2 -1</clus>
<clus scale="  131.913">  2  6  1 -1</clus>
<clus scale="   82.646">  1  3  2 -1</clus>
</clustering>
</event>
<event>
 6    0  0.1555973E+002  0.6832525E+02  0.7546771E-02  0.1365882E+00
         21   -1    0    0  502  501  0.00000000000E+00  0.00000000000E+00  0.18260144016E+03  0.18260144016E+03  0.00000000000E+00 0. -1.
         21   -1    0    0  506  502 -0.00000000000E+00 -0.00000000000E+00 -0.15979150553E+03  0.15979150553E+03  0.00000000000E+00 0.  1.
         21    1    1    2  503  501 -0.53483455143E+02 -0.13267587559E+02  0.59281871587E+02  0.80937316193E+02  0.00000000000E+00 0. -1.
         21    1    1    2  504  505  0.85598963323E+02  0.17271956573E+02 -0.45501861202E+01  0.87442593737E+02  0.00000000000E+00 0.  1.
         21    1    1    2  505  503 -0.17132598655E+02 -0.57398950376E+02  0.47982632166E+02  0.76749582608E+02  0.00000000000E+00 0. -1.
         21    1    1    2  506  504 -0.14982909525E+02  0.53394581362E+02 -0.79904383003E+02  0.97263453155E+02  0.00000000000E+00 0.  1.
<scales pt_clust_3="55.10453" pt_clust_4="14000.00000" pt_clust_5="68.32525" pt_clust_6="55.74841"></scales>
<clustering>
<clus scale="   55.105">  1  3  2 -1</clus>
<clus scale="   55.748">  2  6  1 -1</clus>
<clus scale="   68.325">  1  5  2 -1</clus>
<clus scale="   55.105">  1  3  2 -1</clus>
</clustering>
</event>
<event>
 6    0  0.1555973E+002  0.2945671E+03  0.7546771E-02  0.1087988E+00
         21   -1    0    0  506  501  0.00000000000E+00  0.00000000000E+00  0.12566851770E+03  0.12566851770E+03  0.00000000000E+00 0. -1.
         21   -1    0    0  503  502 -0.00000000000E+00 -0.00000000000E+00 -0.17032376790E+04  0.17032376790E+04  0.00000000000E+00 0. -1.
         21    1    1    2  503  504 -0.10387921474E+02  0.43798752458E+02 -0.82579865594E+03  0.82702458233E+03  0.00000000000E+00 0. -1.
         21    1    1    2  504  505 -0.68666342337E+02  0.94201241722E+02 -0.80248962811E+02  0.14152327209E+03  0.00000000000E+00 0. -1.
         21    1    1    2  505  501 -0.12938692393E+03  0.10398306191E+03 -0.71717113011E+02  0.18082255818E+03  0.00000000000E+00 0. -1.
         21    1    1    2  506  502  0.20844118774E+03 -0.24198305609E+03 -0.59980442951E+03  0.67953578408E+03  0.00000000000E+00 0. -1.
<scales pt_clust_3="45.01377" pt_clust_4="40.28611" pt_clust_5="40.28611" pt_clust_6="290.61788"></scales>
<clustering>
<clus scale="   40.286">  4  5 -1 -1</clus>
<clus scale="   45.014">  2  3  1 -1</clus>
<clus scale="  290.618">  2  6  1 -1</clus>
<clus scale="  294.567">  1  3  2 -1</clus>
</clustering>
</event>
<event>
 6    0  0.1555973E+002  0.1310084E+03  0.7546771E-02  0.1225967E+00
         21   -1    0    0  502  501  0.00000000000E+00  0.00000000000E+00  0.17981519692E+03  0.17981519692E+03  0.00000000000E+00 0.  1.
         21   -1    0    0  503  502 -0.00000000000E+00 -0.00000000000E+00 -0.34748230596E+03  0.34748230596E+03  0.00000000000E+00 0.  1.
         21    1    1    2  503  505  0.26444178576E+01 -0.32123426900E+02 -0.25042748740E+03  0.25249323545E+03  0.00000000000E+00 0.  1.
         21    1    1    2  504  506  0.32602984016E+02 -0.22272689800E+02  0.89586964034E+01  0.40488091076E+02  0.00000000000E+00 0.  1.
         21    1    1    2  505  504 -0.12125781377E+03  0.47552648000E+02  0.17815199916E+02  0.13146137486E+03  0.00000000000E+00 0.  1.
         21    1    1    2  506  501  0.86010411898E+02  0.68434686998E+01  0.55986482036E+02  0.10285480149E+03  0.00000000000E+00 0.  1.
<scales pt_clust_3="32.23209" pt_clust_4="30.41971" pt_clust_5="123.04915" pt_clust_6="30.41971"></scales>
<clustering>
<clus scale="   30.420">  4  6 -1 -1</clus>
<clus scale="   32.232">  2  3  1 -1</clus>
<clus scale="  123.049">  2  5  1 -1</clus>
<clus scale="  131.008">  1  3  2 -1</clus>
</clustering>
</event>
<event>
 6    0  0.1555973E+002  0.2161117E+03  0.7546771E-02  0.1136816E+00
         21   -1    0    0  503  501  0.00000000000E+00  0.00000000000E+00  0.66041881170E+03  0.66041881170E+03  0.00000000000E+00 0. -1.
         21   -1    0    0  504  502 -0.00000000000E+00 -0.00000000000E+00 -0.20570470238E+03  0.20570470238E+03  0.00000000000E+00 0.  1.
         21    1    1    2  503  505 -0.17902471064E+03 -0.10172015555E+03  0.54645954999E+03  0.58396479076E+03  0.00000000000E+00 0. -1.
         21    1    1    2  504  506  0.12365198702E+03  0.44445009623E+02 -0.26543769465E+02  0.13405127553E+03  0.00000000000E+00 0.  1.
         21    1    1    2  505  502  0.30208502172E+02  0.61372607891E+01 -0.82886282209E+02  0.88432773064E+02  0.00000000000E+00 0.  1.
         21    1    1    2  506  501  0.25164221451E+02  0.51137885141E+02  0.17684610997E+02  0.59674674729E+02  0.00000000000E+00 0. -1.
<scales pt_clust_3="201.33395" pt_clust_4="49.55525" pt_clust_5="30.82563" pt_clust_6="49.55525"></scales>
<clustering>
<clus scale="   30.826">  2  5  1 -1</clus>
<clus scale="   49.555">  4  6 -1 -1</clus>
<clus scale="  201.334">  1  3  2 -1</clus>
<clus scale="  201.334">  1  3  2 -1</clus>
</clustering>
</event>
<event>
 6    0  0.1555973E+002  0.9057932E+02  0.7546771E-02  0.1301455E+00
         21   -1    0    0  503  501  0.00000000000E+00  0.00000000000E+00  0.31139536693E+03  0.31139536693E+03  0.00000000000E+00 0. -1.
         21   -1    0    0  504  502 -0.00000000000E+00 -0.00000000000E+00 -0.11424802927E+04  0.11424802927E+04  0.00000000000E+00 0. -1.
         21    1    1    2  503  502 -0.31948188292E+02  0.30559584794E+02  0.46267228285E+01  0.44452013701E+02  0.00000000000E+00 0.  1.
         21    1    1    2  504  506  0.64288805576E+02  0.64201174780E+02 -0.11066106330E+04  0.11103341544E+04  0.00000000000E+00 0. -1.
         21    1    1    2  505  501 -0.32240039480E+02 -0.40811708344E+01  0.10640531942E+03  0.11125721596E+03  0.00000000000E+00 0.  1.
         21    1    1    2  506  505 -0.10057780380E+00 -0.90679588739E+02  0.16449366498E+03  0.18783227557E+03  0.00000000000E+00 0. -1.
<scales pt_clust_3="46.79118" pt_clust_4="90.57932" pt_clust_5="32.49732" pt_clust_6="14000.00000"></scales>
<clustering>
<clus scale="   32.497">  1  5  2 -1</clus>
<clus scale="   46.791">  1  3  2 -1</clus>
<clus scale="   90.579">  2  4  1 -1</clus>
<clus scale="   32.497">  1  3  2 -1</clus>
</clustering>
</event>
<event>
 6    0  0.1555973E+002  0.9719646E+02  0.7546771E-02  0.1286304E+00
         21   -1    0    0  503  501  0.00000000000E+00  0.00000000000E+00  0.11128631080E+04  0.11128631080E+04  0.00000000000E+00 0. -1.
         21   -1    0    0  504  502 -0.00000000000E+00 -0.00000000000E+00 -0.13684352634E+03  0.13684352634E+03  0.00000000000E+00 0.  1.
         21    1    1    2  503  506  0.14813239127E+03 -0.16229159965E+02  0.43562749139E+03  0.46041058006E+03  0.00000000000E+00 0. -1.
         21    1    1    2  504  505 -0.63718108387E+02  0.27718422751E+01  0.57490406579E+03  0.57843095120E+03  0.00000000000E+00 0.  1.
         21    1    1    2  505  501 -0.28914916488E+02 -0.11216109120E+02  0.77483769701E+02  0.83460218466E+02  0.00000000000E+00 0. -1.
         21    1    1    2  506  502 -0.55499366393E+02  0.24673426810E+02 -0.11199574525E+03  0.12740488458E+03  0.00000000000E+00 0.  1.
<scales pt_clust_3="14000.00000" pt_clust_4="97.19646" pt_clust_5="31.01409" pt_clust_6="60.90019"></scales>
<clustering>
<clus scale="   31.014">  1  5  2 -1</clus>
<clus scale="   60.900">  2  6  1 -1</clus>
<clus scale="   97.196">  1  4  2 -1</clus>
<clus scale="   31.014">  1  3  2 -1</clus>
</clustering>
</event>
<event>
 6    0  0.1555973E+002  0.1387881E+03  0.7546771E-02  0.1214969E+00
         21   -1    0    0  504  501  0.00000000000E+00  0.00000000000E+00  0.27645375261E+03  0.27645375261E+03  0.00000000000E+00 0.  1.
         21   -1    0    0  501  502 -0.00000000000E+00 -0.00000000000E+00 -0.77477151522E+03  0.77477151522E+03  0.00000000000E+00 0.  1.
         21    1    1    2  503  506  0.14573876472E+03  0.11872120422E+03 -0.46847161969E+03  0.50477734728E+03  0.00000000000E+00 0.  1.
         21    1    1    2  504  505 -0.41839626275E+02 -0.40703898140E+02  0.15431288193E+03  0.16498432405E+03  0.00000000000E+00 0.  1.
         21    1    1    2  505  503 -0.65331463262E+02 -0.25998146697E+02  0.81723210934E+02  0.10780902990E+03  0.00000000000E+00 0.  1.
         21    1    1    2  506  502 -0.38567675181E+02 -0.52019159381E+02 -0.26588223578E+03  0.27365456659E+03  0.00000000000E+00 0.  1.
<scales pt_clust_3="128.42804" pt_clust_4="47.93965" pt_clust_5="47.93965" pt_clust_6="64.75692"></scales>
<clustering>
<clus scale="   47.940">  4  5 -1 -1</clus>
<clus scale="   64.757">  2  6  1 -1</clus>
<clus scale="  128.428">  2  3  1 -1</clus>
<clus scale="  138.788">  1  3  2 -1</clus>
</clustering>
</event>
<event>
 6    0  0.1555973E+002  0.3255674E+03  0.7546771E-02  0.1073115E+00
         21   -1    0    0  506  501  0.00000000000E+00  0.00000000000E+00  0.12148980376E+03  0.12148980376E+03  0.00000000000E+00 0.  1.
         21   -1    0    0  504  502 -0.00000000000E+00 -0.00000000000E+00 -0.21435142392E+04  0.21435142392E+04  0.00000000000E+00 0.  1.
         21    1    1    2  503  501  0.19947610859E+03  0.39998371665E+02 -0.20923497813E+03  0.29183876320E+03  0.00000000000E+00 0.  1.
         21    1    1    2  504  505 -0.31013384088E+03 -0.41762664941E+02 -0.16244507257E+04  0.16543177687E+04  0.00000000000E+00 0.  1.
         21    1    1    2  505  503  0.17900060120E+03  0.32426770906E+02 -0.14191704230E+03  0.23072311891E+03  0.00000000000E+00 0.  1.
         21    1    1    2  506  502 -0.68342868915E+02 -0.30662477630E+02 -0.46421689338E+02  0.88124392236E+02  0.00000000000E+00 0.  1.
<scales pt_clust_3="33.74029" pt_clust_4="323.60623" pt_clust_5="33.74029" pt_clust_6="74.90618"></scales>
<clustering>
<clus scale="   33.740">  3  5 -1 -1</clus>
<clus scale="   74.906">  1  6  2 -1</clus>
<clus scale="  323.606">  2  4  1 -1</clus>
<clus scale="   74.906">  1  3  2 -1</clus>
</clustering>
</event>
<event>
 6    0  0.1555973E+002  0.2540692E+03  0.7546771E-02  0.1110760E+00
         21   -1    0    0  504  501  0.00000000000E+00  0.00000000000E+00  0.61601295256E+03  0.61601295256E+03  0.00000000000E+00 0.  1.
         21   -1    0    0  503  502 -0.00000000000E+00 -0.00000000000E+00 -0.47404032500E+03  0.47404032500E+03  0.00000000000E+00 0.  1.
         21    1    1    2  503  501 -0.16078226942E+03 -0.20580031128E+03 -0.38578310709E+03  0.46586834192E+03  0.00000000000E+00 0.  1.
         21    1    1    2  504  506 -0.10802803798E+02  0.63041578046E+02  0.88635895004E+02  0.10930353615E+03  0.00000000000E+00 0.  1.
         21    1    1    2  505  502  0.16821149404E+03  0.91369639750E+02  0.41698837298E+03  0.45882765936E+03  0.00000000000E+00 0.  1.
         21    1    1    2  506  505  0.33735791803E+01  0.51389093486E+02  0.22131466662E+02  0.56053740128E+02  0.00000000000E+00 0. -1.
<scales pt_clust_3="254.06917" pt_clust_4="122.77467" pt_clust_5="14000.00000" pt_clust_6="39.35995"></scales>
<clustering>
<clus scale="   39.360">  4  6 -1 -1</clus>
<clus scale="  122.775">  1  4  2 -1</clus>
<clus scale="  254.069">  2  3  1 -1</clus>
<clus scale="  122.775">  1  3  2 -1</clus>
</clustering>
</event>
<event>
 6    0  0.1555973E+002  0.1215528E+03  0.7546771E-02  0.1240557E+00
         21   -1    0    0  506  501  0.00000000000E+00  0.00000000000E+00  0.25734895898E+03  0.25734895898E+03  0.00000000000E+00 0.  1.
         21   -1    0    0  503  502 -0.00000000000E+00 -0.00000000000E+00 -0.94940955718E+02  0.94940955718E+02  0.00000000000E+00 0.  1.
         21    1    1    2  503  501  0.23558022998E+00  0.49509843613E+02  0.67185931965E+02  0.83457950889E+02  0.00000000000E+00 0.  1.
         21    1    1    2  504  505 -0.42924425814E+02 -0.19994866758E+02  0.29408343826E+02  0.55741830924E+02  0.00000000000E+00 0.  1.
         21    1    1    2  505  502  0.10702186452E+03 -0.51816276916E+02  0.74336339446E+00  0.11890819411E+03  0.00000000000E+00 0.  1.
         21    1    1    2  506  504 -0.64333018933E+02  0.22301300061E+02  0.65070364072E+02  0.94181938766E+02  0.00000000000E+00 0.  1.
<scales pt_clust_3="49.51040" pt_clust_4="37.67932" pt_clust_5="112.84346" pt_clust_6="37.67932"></scales>
<clustering>
<clus scale="   37.679">  4  6 -1 -1</clus>
<clus scale="   49.510">  1  3  2 -1</clus>
<clus scale="  112.843">  2  5  1 -1</clus>
<clus scale="   49.510">  1  3  2 -1</clus>
</clustering>
</event>
<event>
 6    0  0.1555973E+002  0.1633479E+03  0.7546771E-02  0.1184968E+00
         21   -1    0    0  505  501  0.00000000000E+00  0.00000000000E+00  0.19976540523E+03  0.19976540523E+03  0.00000000000E+00 0. -1.
         21   -1    0    0  506  502 -0.00000000000E+00 -0.00000000000E+00 -0.15014664564E+04  0.15014664564E+04  0.00000000000E+00 0. -1.
         21    1    1    2  503  502 -0.11091575351E+03  0.10673691279E+03 -0.12061321373E+03  0.19555720456E+03  0.00000000000E+00 0. -1.
         21    1    1    2  504  503  0.11487905905E+03 -0.96663082265E+02  0.71617713685E+02  0.16634315915E+03  0.00000000000E+00 0. -1.
         21    1    1    2  505  504 -0.96022005451E+01 -0.49796432736E+02  0.28045610481E+02  0.57952077062E+02  0.00000000000E+00 0. -1.
         21    1    1    2  506  501  0.56388950042E+01  0.39722602209E+02 -0.12807511616E+04  0.12813794208E+04  0.00000000000E+00 0. -1.
<scales pt_clust_3="14000.00000" pt_clust_4="163.34789" pt_clust_5="47.99527" pt_clust_6="40.12085"></scales>
<clustering>
<clus scale="   40.121">  2  6  1 -1</clus>
<clus scale="   47.995">  1  5  2 -1</clus>
<clus scale="  163.348">  1  4  2 -1</clus>
<clus scale="   47.995">  1  3  2 -1</clus>
</clustering>
</event>
<event>
 6    0  0.1555973E+002  0.2038205E+03  0.7546771E-02  0.1146555E+00
         21   -1    0    0  506  501  0.00000000000E+00  0.00000000000E+00  0.63216975873E+03  0.63216975873E+03  0.00000000000E+00 0.  1.
         21   -1    0    0  505  502 -0.00000000000E+00 -0.00000000000E+00 -0.61145048023E+02  0.61145048023E+02  0.00000000000E+00 0. -1.
         21    1    1    2  503  502  0.15943670109E+02  0.63200144300E+02  0.94188931218E+02  0.11454262796E+03  0.00000000000E+00 0.  1.
         21    1    1    2  504  503 -0.10342589775E+02  0.75578755983E+02  0.18001258371E+03  0.19550868987E+03  0.00000000000E+00 0.  1.
         21    1    1    2  505  501  0.18430733240E+02 -0.18693136686E+03  0.24318543716E+03  0.30728193031E+03  0.00000000000E+00 0. -1.
         21    1    1    2  506  504 -0.24031813575E+02  0.48152466578E+02  0.53637758618E+02  0.75981558624E+02  0.00000000000E+00 0.  1.
<scales pt_clust_3="37.59785" pt_clust_4="39.21257" pt_clust_5="187.83777" pt_clust_6="39.21257"></scales>
<clustering>
<clus scale="   37.598">  3  4 -1 -1</clus>
<clus scale="   39.213">  3  6 -1 -1</clus>
<clus scale="  187.838">  2  5  1 -1</clus>
<clus scale="  203.820">  1  3  2 -1</clus>
</clustering>
</event>
<event>
 6    0  0.1555973E+002  0.1016637E+03  0.7546771E-02  0.1276836E+00
         21   -1    0    0  505  501  0.00000000000E+00  0.00000000000E+00  0.13394363725E+04  0.13394363725E+04  0.00000000000E+00 0.  1.
         21   -1    0    0  503  502 -0.00000000000E+00 -0.00000000000E+00 -0.47054291955E+03  0.47054291955E+03  0.00000000000E+00 0. -1.
         21    1    1    2  503  504 -0.12793686276E+03 -0.55991932692E+02  0.10306965709E+04  0.10401145892E+04  0.00000000000E+00 0.  1.
         21    1    1    2  504  501  0.13761439366E+02  0.36743219020E+02  0.24560437308E+03  0.24871861497E+03  0.00000000000E+00 0.  1.
         21    1    1    2  505  506  0.12968533505E+02  0.27564501747E+02  0.46736222134E+02  0.55787624767E+02  0.00000000000E+00 0.  1.
         21    1    1    2  506  502  0.10120688989E+03 -0.83157880755E+01 -0.45414371322E+03  0.46535846306E+03  0.00000000000E+00 0. -1.
<scales pt_clust_3="101.66371" pt_clust_4="45.06376" pt_clust_5="30.46284" pt_clust_6="14000.00000"></scales>
<clustering>
<clus scale="   30.463">  1  5  2 -1</clus>
<clus scale="   45.064">  1  4  2 -1</clus>
<clus scale="  101.664">  1  3  2 -1</clus>
<clus scale="   30.463">  1  3  2 -1</clus>
</clustering>
</event>
<event>
 6    0  0.1555973E+002  0.1657528E+03  0.7546771E-02  0.1182351E+00
         21   -1    0    0  504  501  0.00000000000E+00  0.00000000000E+00  0.22548937507E+03  0.22548937507E+03  0.00000000000E+00 0.  1.
         21   -1    0    0  506  502 -0.00000000000E+00 -0.00000000000E+00 -0.77990896137E+03  0.77990896137E+03  0.00000000000E+00 0. -1.
         21    1    1    2  503  501  0.66203205421E+01 -0.39053327396E+02  0.46413469841E+01  0.39881488520E+02  0.00000000000E+00 0.  1.
         21    1    1    2  504  505 -0.97003241762E+02  0.71674085568E+02  0.13762178590E+03  0.18299333160E+03  0.00000000000E+00 0.  1.
         21    1    1    2  505  502 -0.53390779059E+02  0.69498013752E+01  0.14593433882E+02  0.55783898575E+02  0.00000000000E+00 0.  1.
         21    1    1    2  506  503  0.14377370028E+03 -0.39570559547E+02 -0.71127615307E+03  0.72673961775E+03  0.00000000000E+00 0. -1.
<scales pt_clust_3="39.61049" pt_clust_4="51.21969" pt_clust_5="51.21969" pt_clust_6="149.76310"></scales>
<clustering>
<clus scale="   39.610">  1  3  2 -1</clus>
<clus scale="   51.220">  4  5 -1 -1</clus>
<clus scale="  149.763">  2  6  1 -1</clus>
<clus scale="   39.610">  1  3  2 -1</clus>
</clustering>
</event>
<event>
 6    0  0.1555973E+002  0.1064697E+03  0.7546771E-02  0.1267251E+00
         21   -1    0    0  505  501  0.00000000000E+00  0.00000000000E+00  0.24440403692E+03  0.24440403692E+03  0.00000000000E+00 0.  1.
         21   -1    0    0  504  502 -0.00000000000E+00 -0.00000000000E+00 -0.56328366273E+03  0.56328366273E+03  0.00000000000E+00 0.  1.
         21    1    1    2  503  502  0.11729474159E+03  0.46472517772E+02 -0.23246924406E+02  0.12828940255E+03  0.00000000000E+00 0.  1.
         21    1    1    2  504  506 -0.41739114487E+02  0.28086890187E+02 -0.45995015789E+03  0.46269339180E+03  0.00000000000E+00 0.  1.
         21    1    1    2  505  503 -0.47911511369E+02 -0.87939190358E+02  0.15513424907E+03  0.18464953116E+03  0.00000000000E+00 0.  1.
         21    1    1    2  506  501 -0.27644115738E+02  0.13379782399E+02  0.91832074132E+01  0.32055374126E+02  0.00000000000E+00 0. -1.
<scales pt_clust_3="106.46974" pt_clust_4="50.49568" pt_clust_5="14000.00000" pt_clust_6="30.71182"></scales>
<clustering>
<clus scale="   30.712">  1  6  2 -1</clus>
<clus scale="   50.496">  2  4  1 -1</clus>
<clus scale="  106.470">  2  3  1 -1</clus>
<clus scale="   30.712">  1  3  2 -1</clus>
</clustering>
</event>
<event>
 6    0  0.1555973E+002  0.1012070E+03  0.7546771E-02  0.1277778E+00
         21   -1    0    0  503  501  0.00000000000E+00  0.00000000000E+00  0.67669728804E+03  0.67669728804E+03  0.00000000000E+00 0. -1.
         21   -1    0    0  504  502 -0.00000000000E+00 -0.00000000000E+00 -0.21841084318E+03  0.21841084318E+03  0.00000000000E+00 0. -1.
         21    1    1    2  503  502 -0.33399013788E+02 -0.28725583030E+02 -0.17569815641E+03  0.18113667604E+03  0.00000000000E+00 0. -1.
         21    1    1    2  504  506  0.19195470470E+01  0.67101772515E+02  0.62389177219E+02  0.91644650523E+02  0.00000000000E+00 0. -1.
         21    1    1    2  505  501  0.47523831148E+02  0.84055358873E+02  0.39639139039E+03  0.40798278427E+03  0.00000000000E+00 0. -1.
         21    1    1    2  506  505 -0.16044364406E+02 -0.12243154836E+03  0.17520403366E+03  0.21434402038E+03  0.00000000000E+00 0. -1.
<scales pt_clust_3="44.05285" pt_clust_4="57.52425" pt_clust_5="101.20701" pt_clust_6="14000.00000"></scales>
<clustering>
<clus scale="   44.053">  2  3  1 -1</clus>
<clus scale="   57.524">  2  4  1 -1</clus>
<clus scale="  101.207">  1  5  2 -1</clus>
<clus scale="  101.207">  1  3  2 -1</clus>
</clustering>
</event>
<event>
 6    0  0.1555973E+002  0.2159398E+03  0.7546771E-02  0.1136947E+00
         21   -1    0    0  505  501  0.00000000000E+00  0.00000000000E+00  0.10962896217E+04  0.10962896217E+04  0.00000000000E+00 0. -1.
         21   -1    0    0  506  502 -0.00000000000E+00 -0.00000000000E+00 -0.23962672226E+03  0.23962672226E+03  0.00000000000E+00 0.  1.
         21    1    1    2  503  502  0.43091654206E+02 -0.35086557384E+02 -0.13523767382E+03  0.14620938954E+03  0.00000000000E+00 0.  1.
         21    1    1    2  504  501 -0.67186815000E+01 -0.13806277247E+03  0.76100625631E+02  0.15779028818E+03  0.00000000000E+00 0.  1.
         21    1    1    2  505  503  0.11075127292E+03  0.23583325589E+03  0.77917111269E+03  0.82157823236E+03  0.00000000000E+00 0. -1.
         21    1    1    2  506  504 -0.14712424563E+03 -0.62683926031E+02  0.13662883499E+03  0.21033843392E+03  0.00000000000E+00 0.  1.
<scales pt_clust_3="55.56939" pt_clust_4="14000.00000" pt_clust_5="215.93983" pt_clust_6="151.38639"></scales>
<clustering>
<clus scale="   55.569">  2  3  1 -1</clus>
<clus scale="  151.386">  2  6  1 -1</clus>
<clus scale="  215.940">  1  5  2 -1</clus>
<clus scale="  215.940">  1  3  2 -1</clus>
</clustering>
</event>
<event>
 6    0  0.1555973E+002  0.1155277E+03  0.7546771E-02  0.1250663E+00
         21   -1    0    0  505  501  0.00000000000E+00  0.00000000000E+00  0.12643081436E+03  0.12643081436E+03  0.00000000000E+00 0.  1.
         21   -1    0    0  504  502 -0.00000000000E+00 -0.00000000000E+00 -0.91383536982E+03  0.91383536982E+03  0.00000000000E+00 0. -1.
         21    1    1    2  503  501 -0.30030621866E+02 -0.47227528548E+00 -0.56812768090E+00  0.30039708099E+02  0.00000000000E+00 0.  1.
         21    1    1    2  504  503  0.63865575271E+02 -0.13137246576E+03  0.26290270833E+02  0.14842073577E+03  0.00000000000E+00 0.  1.
         21    1    1    2  505  506 -0.23017730238E+00  0.86743458530E+02 -0.57459755969E+02  0.10404856623E+03  0.00000000000E+00 0.  1.
         21    1    1    2  506  502 -0.33604776103E+02  0.45101282520E+02 -0.75566694264E+03  0.75775717408E+03  0.00000000000E+00 0. -1.
<scales pt_clust_3="30.03434" pt_clust_4="14000.00000" pt_clust_5="115.52768" pt_clust_6="56.40897"></scales>
<clustering>
<clus scale="   30.034">  1  3  2 -1</clus>
<clus scale="   56.409">  2  6  1 -1</clus>
<clus scale="  115.528">  2  5  1 -1</clus>
<clus scale="   30.034">  1  3  2 -1</clus>
</clustering>
</event>
<event>
 6    0  0.1555973E+002  0.1720470E+03  0.7546771E-02  0.1175730E+00
         21   -1    0    0  504  501  0.00000000000E+00  0.00000000000E+00  0.43650207446E+02  0.43650207446E+02  0.00000000000E+00 0.  1.
         21   -1    0    0  501  502 -0.00000000000E+00 -0.00000000000E+00 -0.14386164241E+04  0.14386164241E+04  0.00000000000E+00 0.  1.
         21    1    1    2  503  502 -0.72223537249E+02 -0.15909812806E+03 -0.11377647388E+04  0.11511025386E+04  0.00000000000E+00 0.  1.
         21    1    1    2  504  506 -0.20793692075E+02  0.44684226152E+02 -0.30209536893E+02  0.57807212493E+02  0.00000000000E+00 0.  1.
         21    1    1    2  505  503  0.46396770384E+02  0.73242420708E+02 -0.15973911115E+03  0.18175174311E+03  0.00000000000E+00 0.  1.
         21    1    1    2  506  505  0.46620458941E+02  0.41171481203E+02 -0.67252829814E+02  0.91605137270E+02  0.00000000000E+00 0.  1.
<scales pt_clust_3="167.76253" pt_clust_4="49.28547" pt_clust_5="32.31765" pt_clust_6="32.31765"></scales>
<clustering>
<clus scale="   32.318">  5  6 -1 -1</clus>
<clus scale="   49.285">  1  4  2 -1</clus>
<clus scale="  167.763">  2  3  1 -1</clus>
<clus scale="   49.285">  1  3  2 -1</clus>
</clustering>
</event>
<event>
 6    0  0.1555973E+002  0.1010972E+03  0.7546771E-02  0.1278005E+00
         21   -1    0    0  504  501  0.00000000000E+00  0.00000000000E+00  0.66260983690E+03  0.66260983690E+03  0.00000000000E+00 0. -1.
         21   -1    0    0  506  502 -0.00000000000E+00 -0.00000000000E+00 -0.58982625155E+02  0.58982625155E+02  0.00000000000E+00 0. -1.
         21    1    1    2  503  502 -0.17651089649E+02 -0.31657149844E+02  0.73728674653E+02  0.82156275282E+02  0.00000000000E+00 0. -1.
         21    1    1    2  504  503  0.40643690004E+00 -0.62036635208E+02  0.28691827110E+03  0.29354863923E+03  0.00000000000E+00 0. -1.
         21    1    1    2  505  501  0.67709424812E+02  0.15637647144E+02  0.24320534416E+03  0.25293861240E+03  0.00000000000E+00 0. -1.
         21    1    1    2  506  505 -0.50464772063E+02  0.78056137908E+02 -0.22507816856E+00  0.92948935146E+02  0.00000000000E+00 0. -1.
<scales pt_clust_3="34.28615" pt_clust_4="34.28615" pt_clust_5="69.49174" pt_clust_6="90.60123"></scales>
<clustering>
<clus scale="   34.286">  3  4 -1 -1</clus>
<clus scale="   69.492">  1  5  2 -1</clus>
<clus scale="   90.601">  2  6  1 -1</clus>
<clus scale="   69.492">  1  3  2 -1</clus>
</clustering>
</event>
<event>
 6    0  0.1555973E+002  0.1788395E+03  0.7546771E-02  0.1168931E+00
         21   -1    0    0  506  501  0.00000000000E+00  0.00000000000E+00  0.22378954361E+03  0.22378954361E+03  0.00000000000E+00 0.  1.
         21   -1    0    0  505  502 -0.00000000000E+00 -0.00000000000E+00 -0.10291259246E+04  0.10291259246E+04  0.00000000000E+00 0. -1.
         21    1    1    2  503  501  0.41426379996E+01 -0.34252116880E+02 -0.21105901364E+02  0.40445370968E+02  0.00000000000E+00 0.  1.
         21    1    1    2  504  502  0.12398693842E+03  0.65158914825E+02  0.10530736252E+03  0.17523722687E+03  0.00000000000E+00 0.  1.
         21    1    1    2  505  503 -0.15136616558E+03 -0.76351603803E+02 -0.94602853341E+03  0.96109899048E+03  0.00000000000E+00 0. -1.
         21    1    1    2  506  504  0.23236589161E+02  0.45444805858E+02  0.56490691309E+02  0.76133879842E+02  0.00000000000E+00 0.  1.
<scales pt_clust_3="34.50172" pt_clust_4="33.61513" pt_clust_5="169.94908" pt_clust_6="33.61513"></scales>
<clustering>
<clus scale="   33.615">  4  6 -1 -1</clus>
<clus scale="   34.502">  1  3  2 -1</clus>
<clus scale="  169.949">  2  5  1 -1</clus>
<clus scale="   34.502">  1  3  2 -1</clus>
</clustering>
</event>
<event>
 6    0  0.1555973E+002  0.1198722E+03  0.7546771E-02  0.1243308E+00
         21   -1    0    0  504  501  0.00000000000E+00  0.00000000000E+00  0.93831099997E+03  0.93831099997E+03  0.00000000000E+00 0.  1.
         21   -1    0    0  503  502 -0.00000000000E+00 -0.00000000000E+00 -0.90197636777E+02  0.90197636777E+02  0.00000000000E+00 0. -1.
         21    1    1    2  503  505  0.45357229722E+02  0.59158750237E+02 -0.42391756596E+02  0.85756032120E+02  0.00000000000E+00 0. -1.
         21    1    1    2  504  502 -0.31762291846E+02 -0.21774369029E+02  0.67150209538E+02  0.77408765466E+02  0.00000000000E+00 0.  1.
         21    1    1    2  505  506  0.87927905242E+02 -0.84534252435E+02  0.21868923471E+03  0.25040434847E+03  0.00000000000E+00 0.  1.
         21    1    1    2  506  501 -0.10152284312E+03  0.47149871227E+02  0.60466567554E+03  0.61493949069E+03  0.00000000000E+00 0.  1.
<scales pt_clust_3="73.62967" pt_clust_4="38.50930" pt_clust_5="14000.00000" pt_clust_6="119.87222"></scales>
<clustering>
<clus scale="   38.509">  1  4  2 -1</clus>
<clus scale="   73.630">  2  3  1 -1</clus>
<clus scale="  119.872">  1  6  2 -1</clus>
<clus scale="   38.509">  1  3  2 -1</clus>
</clustering>
</event>
<event>
 6    0  0.1555973E+002  0.1407262E+03  0.7546771E-02  0.1212355E+00
         21   -1    0    0  506  501  0.00000000000E+00  0.00000000000E+00  0.46820376680E+03  0.46820376680E+03  0.00000000000E+00 0. -1.
         21   -1    0    0  504  502 -0.00000000000E+00 -0.00000000000E+00 -0.28788891975E+03  0.28788891975E+03  0.00000000000E+00 0. -1.
         21    1    1    2  503  502 -0.19105255703E+02  0.36709791635E+02 -0.12662726038E+03  0.13321817694E+03  0.00000000000E+00 0. -1.
         21    1    1    2  504  505  0.12877238659E+03 -0.47977658066E+02 -0.15684608871E+02  0.13831193072E+03  0.00000000000E+00 0. -1.
         21    1    1    2  505  501  0.12516911079E+03  0.99260495666E+01  0.94381687727E+02  0.15707875647E+03  0.00000000000E+00 0. -1.
         21    1    1    2  506  503 -0.23483624168E+03  0.13418168637E+01  0.22824502858E+03  0.32748382242E+03  0.00000000000E+00 0. -1.
<scales pt_clust_3="41.38381" pt_clust_4="140.72623" pt_clust_5="122.59184" pt_clust_6="14000.00000"></scales>
<clustering>
<clus scale="   41.384">  2  3  1 -1</clus>
<clus scale="  122.592">  1  5  2 -1</clus>
<clus scale="  140.726">  2  4  1 -1</clus>
<clus scale="  122.592">  1  3  2 -1</clus>
</clustering>
</event>
<event>
 6    0  0.1555973E+002  0.1093588E+03  0.7546771E-02  0.1261762E+00
         21   -1    0    0  506  501  0.00000000000E+00  0.00000000000E+00  0.30987837794E+03  0.30987837794E+03  0.00000000000E+00 0. -1.
         21   -1    0    0  503  502 -0.00000000000E+00 -0.00000000000E+00 -0.64564011027E+03  0.64564011027E+03  0.00000000000E+00 0. -1.
         21    1    1    2  503  501 -0.36025657291E+02 -0.58556678117E+02  0.26082191201E+03  0.26973098138E+03  0.00000000000E+00 0. -1.
         21    1    1    2  504  502 -0.80797158217E+02 -0.44237130077E+02 -0.47144013171E+03  0.48035497525E+03  0.00000000000E+00 0. -1.
         21    1    1    2  505  504  0.53537009845E+02  0.66801376055E+02 -0.91263500600E+02  0.12513057903E+03  0.00000000000E+00 0. -1.
         21    1    1    2  506  505  0.63285805663E+02  0.35992432140E+02 -0.33880012016E+02  0.80301952553E+02  0.00000000000E+00 0. -1.
<scales pt_clust_3="68.75124" pt_clust_4="98.14204" pt_clust_5="44.49060" pt_clust_6="44.49060"></scales>
<clustering>
<clus scale="   44.491">  5  6 -1 -1</clus>
<clus scale="   68.751">  1  3  2 -1</clus>
<clus scale="   98.142">  2  4  1 -1</clus>
<clus scale="   68.751">  1  3  2 -1</clus>
</clustering>
</event>
<event>
 6    0  0.1555973E+002  0.1143870E+03  0.7546771E-02  0.1252655E+00
         21   -1    0    0  504  501  0.00000000000E+00  0.00000000000E+00  0.37684348517E+03  0.37684348517E+03  0.00000000000E+00 0. -1.
         21   -1    0    0  506  502 -0.00000000000E+00 -0.00000000000E+00 -0.54029354592E+03  0.54029354592E+03  0.00000000000E+00 0.  1.
         21    1    1    2  503  502 -0.11307865288E+03 -0.20768427213E+02 -0.48581306583E+03  0.49923185419E+03  0.00000000000E+00 0.  1.
         21    1    1    2  504  505 -0.28801787559E+02  0.34826351196E+02  0.41934642789E+02  0.61651698842E+02  0.00000000000E+00 0.  1.
         21    1    1    2  505  503  0.96501446312E+02 -0.36248968742E+02  0.28733707138E+03  0.30526891336E+03  0.00000000000E+00 0. -1.
         21    1    1    2  506  501  0.45378994131E+02  0.22191044758E+02 -0.69087090922E+01  0.50984564695E+02  0.00000000000E+00 0. -1.
<scales pt_clust_3="14000.00000" pt_clust_4="45.19312" pt_clust_5="114.38700" pt_clust_6="49.88640"></scales>
<clustering>
<clus scale="   45.193">  1  4  2 -1</clus>
<clus scale="   49.886">  1  6  2 -1</clus>
<clus scale="  114.387">  1  5  2 -1</clus>
<clus scale="   45.193">  1  3  2 -1</clus>
</clustering>
</event>
<event>
 6    0  0.1555973E+002  0.1080327E+03  0.7546771E-02  0.1264257E+00
         21   -1    0    0  506  501  0.00000000000E+00  0.00000000000E+00  0.14814272544E+04  0.14814272544E+04  0.00000000000E+00 0. -1.
         21   -1    0    0  504  502 -0.00000000000E+00 -0.00000000000E+00 -0.75130169288E+02  0.75130169288E+02  0.00000000000E+00 0. -1.
         21    1    1    2  503  502 -0.39969673532E+02  0.91398564956E+02 -0.30421810828E+02  0.10429170174E+03  0.00000000000E+00 0. -1.
         21    1    1    2  504  501 -0.49448367616E+02 -0.51190603583E+02  0.22912586398E+03  0.23992557284E+03  0.00000000000E+00 0. -1.
         21    1    1    2  505  503  0.50688746597E+02 -0.47668154306E+01  0.75452553767E+03  0.75624127007E+03  0.00000000000E+00 0. -1.
         21    1    1    2  506  505  0.38729294551E+02 -0.35441145942E+02  0.45306749432E+03  0.45609887907E+03  0.00000000000E+00 0. -1.
<scales pt_clust_3="98.97285" pt_clust_4="71.17316" pt_clust_5="42.64737" pt_clust_6="42.64737"></scales>
<clustering>
<clus scale="   42.647">  5  6 -1 -1</clus>
<clus scale="   71.173">  1  4  2 -1</clus>
<clus scale="   98.973">  2  3  1 -1</clus>
<clus scale="   71.173">  1  3  2 -1</clus>
</clustering>
</event>
<event>
 6    0  0.1555973E+002  0.9804562E+02  0.7546771E-02  0.1284460E+00
         21   -1    0    0  504  501  0.00000000000E+00  0.00000000000E+00  0.44095343874E+03  0.44095343874E+03  0.00000000000E+00 0. -1.
         21   -1    0    0  505  502 -0.00000000000E+00 -0.00000000000E+00 -0.20210686800E+04  0.20210686800E+04  0.00000000000E+00 0. -1.
         21    1    1    2  503  506 -0.59733451558E+01 -0.50755793058E+02  0.13416127042E+03  0.14356558731E+03  0.00000000000E+00 0. -1.
         21    1    1    2  504  503 -0.10701553844E+02 -0.45567739572E+02  0.23531250812E+03  0.23992273469E+03  0.00000000000E+00 0. -1.
         21    1    1    2  505  501  0.91159146165E+02  0.44077634384E+02  0.23009972075E+02  0.10383778983E+03  0.00000000000E+00 0. -1.
         21    1    1    2  506  502 -0.74484247165E+02  0.52245898246E+02 -0.19725989919E+04  0.19746960069E+04  0.00000000000E+00 0. -1.
<scales pt_clust_3="30.20527" pt_clust_4="30.20527" pt_clust_5="92.82671" pt_clust_6="90.98097"></scales>
<clustering>
<clus scale="   30.205">  3  4 -1 -1</clus>
<clus scale="   90.981">  2  6  1 -1</clus>
<clus scale="   92.827">  2  5  1 -1</clus>
<clus scale="   98.046">  1  3  2 -1</clus>
</clustering>
</event>
<event>
 6    0  0.1555973E+002  0.1735076E+03  0.7546771E-02  0.1174239E+00
         21   -1    0    0  505  501  0.00000000000E+00  0.00000000000E+00  0.57145634437E+03  0.57145634437E+03  0.00000000000E+00 0. -1.
         21   -1    0    0  506  502 -0.00000000000E+00 -0.00000000000E+00 -0.74459483594E+02  0.74459483594E+02  0.00000000000E+00 0. -1.
         21    1    1    2  503  502 -0.13319671638E+02  0.33338980666E+02  0.11402263118E+02  0.37668460130E+02  0.00000000000E+00 0. -1.
         21    1    1    2  504  503 -0.66502162499E+02  0.43779723522E+02  0.11716842318E+03  0.14166030213E+03  0.00000000000E+00 0. -1.
         21    1    1    2  505  504 -0.78830056018E+02  0.21031094136E+02  0.19700721348E+03  0.21323303406E+03  0.00000000000E+00 0. -1.
         21    1    1    2  506  501  0.15865189015E+03 -0.98149798324E+02  0.17141896100E+03  0.25335403165E+03  0.00000000000E+00 0. -1.
<scales pt_clust_3="35.90127" pt_clust_4="43.55067" pt_clust_5="43.55067" pt_clust_6="167.88037"></scales>
<clustering>
<clus scale="   35.901">  2  3  1 -1</clus>
<clus scale="   43.551">  4  5 -1 -1</clus>
<clus scale="  167.880">  2  6  1 -1</clus>
<clus scale="  173.508">  1  3  2 -1</clus>
</clustering>
</event>
<event>
 6    0  0.1555973E+002  0.1250345E+03  0.7546771E-02  0.1235015E+00
         21   -1    0    0  502  501  0.00000000000E+00  0.00000000000E+00  0.18572016579E+03  0.18572016579E+03  0.00000000000E+00 0. -1.
         21   -1    0    0  505  502 -0.00000000000E+00 -0.00000000000E+00 -0.15209859883E+04  0.15209859883E+04  0.00000000000E+00 0.  1.
         21    1    1    2  503  501  0.98602357046E+02 -0.79247036963E+02  0.13556408930E+03  0.18541882318E+03  0.00000000000E+00 0. -1.
         21    1    1    2  504  503 -0.15474598904E+02  0.29328901128E+02 -0.77751947586E+01  0.34060259925E+02  0.00000000000E+00 0.  1.
         21    1    1    2  505  506 -0.31329087650E+02  0.22126766957E+02 -0.14018174252E+04  0.14023420407E+04  0.00000000000E+00 0.  1.
         21    1    1    2  506  504 -0.51798670493E+02  0.27791368877E+02 -0.61237291850E+02  0.84885030259E+02  0.00000000000E+00 0.  1.
<scales pt_clust_3="118.47690" pt_clust_4="30.01357" pt_clust_5="38.35499" pt_clust_6="30.01357"></scales>
<clustering>
<clus scale="   30.014">  4  6 -1 -1</clus>
<clus scale="   38.355">  2  5  1 -1</clus>
<clus scale="  118.477">  1  3  2 -1</clus>
<clus scale="  118.477">  1  3  2 -1</clus>
</clustering>
</event>
<event>
 6    0  0.1555973E+002  0.8914975E+02  0.7546771E-02  0.1304924E+00
         21   -1    0    0  506  501  0.00000000000E+00  0.00000000000E+00  0.18458659428E+03  0.18458659428E+03  0.00000000000E+00 0. -1.
         21   -1    0    0  505  502 -0.00000000000E+00 -0.00000000000E+00 -0.27648887624E+03  0.27648887624E+03  0.00000000000E+00 0.  1.
         21    1    1    2  503  501 -0.38485184812E+02 -0.43832265660E+02  0.20669137590E+02  0.61883682919E+02  0.00000000000E+00 0. -1.
         21    1    1    2  504  503  0.17414755828E+02 -0.59769941148E+02  0.11517749684E+02  0.63311753595E+02  0.00000000000E+00 0. -1.
         21    1    1    2  505  504 -0.25865746934E+02  0.93121327114E+02 -0.21349978411E+03  0.23435608855E+03  0.00000000000E+00 0.  1.
         21    1    1    2  506  502  0.46936175918E+02  0.10480879695E+02  0.89410614875E+02  0.10152394546E+03  0.00000000000E+00 0. -1.
<scales pt_clust_3="42.42309" pt_clust_4="14000.00000" pt_clust_5="89.14975" pt_clust_6="48.09214"></scales>
<clustering>
<clus scale="   48.092">  1  6  2 -1</clus>
<clus scale="   42.423">  1  3  2 -1</clus>
<clus scale="   89.150">  2  5  1 -1</clus>
<clus scale="   48.092">  1  3  2 -1</clus>
</clustering>
</event>
<event>
 6    0  0.4481621E+002  0.1683611E+03  0.7546771E-02  0.1179568E+00
         21   -1    0    0  504  501  0.00000000000E+00  0.00000000000E+00  0.90490899793E+03  0.90490899793E+03  0.00000000000E+00 0.  1.
         21   -1    0    0  501  502 -0.00000000000E+00 -0.00000000000E+00 -0.14583627509E+04  0.14583627509E+04  0.00000000000E+00 0.  1.
         21    1    1    2  503  506 -0.77529947792E+02  0.86256533970E+02 -0.26927930808E+03  0.29319349962E+03  0.00000000000E+00 0.  1.
         21    1    1    2  504  505  0.43286626405E+02 -0.10044841807E+03  0.68289286089E+03  0.69159690296E+03  0.00000000000E+00 0.  1.
         21    1    1    2  505  503  0.77605939501E+01 -0.54767163104E+02  0.20080040574E+03  0.20827979239E+03  0.00000000000E+00 0.  1.
         21    1    1    2  506  502  0.26482727437E+02  0.68959047206E+02 -0.11678677116E+04  0.11702015539E+04  0.00000000000E+00 0.  1.
<scales pt_clust_3="161.79890" pt_clust_4="33.10096" pt_clust_5="33.10096" pt_clust_6="73.86938"></scales>
<clustering>
<clus scale="   33.101">  4  5 -1 -1</clus>
<clus scale="   73.869">  2  6  1 -1</clus>
<clus scale="  161.799">  2  3  1 -1</clus>
<clus scale="  168.361">  1  3  2 -1</clus>
</clustering>
</event>
<event>
 6    0  0.1555973E+002  0.1689349E+03  0.7546771E-02  0.1178963E+00
         21   -1    0    0  506  501  0.00000000000E+00  0.00000000000E+00  0.71618309945E+03  0.71618309945E+03  0.00000000000E+00 0. -1.
         21   -1    0    0  504  502 -0.00000000000E+00 -0.00000000000E+00 -0.29401586872E+03  0.29401586872E+03  0.00000000000E+00 0. -1.
         21    1    1    2  503  501  0.55755283923E+02  0.29333835737E+02  0.21733063663E+03  0.22627799545E+03  0.00000000000E+00 0. -1.
         21    1    1    2  504  503 -0.27159776066E+02  0.78015714303E+02  0.86424424896E+02  0.11955453288E+03  0.00000000000E+00 0.  1.
         21    1    1    2  505  502 -0.34323306192E+02 -0.17381224110E+03 -0.24083278740E+03  0.29898029365E+03  0.00000000000E+00 0. -1.
         21    1    1    2  506  505  0.57277983348E+01  0.66462691065E+02  0.35924495660E+03  0.36538614618E+03  0.00000000000E+00 0. -1.
<scales pt_clust_3="63.00100" pt_clust_4="85.55068" pt_clust_5="168.93492" pt_clust_6="14000.00000"></scales>
<clustering>
<clus scale="   63.001">  1  3  2 -1</clus>
<clus scale="   85.551">  1  4  2 -1</clus>
<clus scale="  168.935">  2  5  1 -1</clus>
<clus scale="   63.001">  1  3  2 -1</clus>
</clustering>
</event>
<event>
 6    0  0.1555973E+002  0.1272217E+03  0.7546771E-02  0.1231637E+00
         21   -1    0    0  504  501  0.00000000000E+00  0.00000000000E+00  0.14843309348E+04  0.14843309348E+04  0.00000000000E+00 0. -1.
         21   -1    0    0  503  502 -0.00000000000E+00 -0.00000000000E+00 -0.16674240855E+03  0.16674240855E+03  0.00000000000E+00 0.  1.
         21    1    1    2  503  506  0.25758064269E+02 -0.17037701732E+02  0.22938684265E+02  0.38470045373E+02  0.00000000000E+00 0. -1.
         21    1    1    2  504  502  0.64509456112E+02 -0.37425552285E+02 -0.13748773434E+03  0.15641297576E+03  0.00000000000E+00 0.  1.
         21    1    1    2  505  501 -0.77298038094E+02  0.10254302247E+03  0.13725048685E+04  0.13784990650E+04  0.00000000000E+00 0. -1.
         21    1    1    2  506  505 -0.12969482287E+02 -0.48079768449E+02  0.59632707797E+02  0.77691257192E+02  0.00000000000E+00 0.  1.
<scales pt_clust_3="30.88302" pt_clust_4="14000.00000" pt_clust_5="127.22174" pt_clust_6="50.37908"></scales>
<clustering>
<clus scale="   30.883">  2  3  1 -1</clus>
<clus scale="   50.379">  2  6  1 -1</clus>
<clus scale="  127.222">  1  5  2 -1</clus>
<clus scale="  127.222">  1  3  2 -1</clus>
</clustering>
</event>
<event>
 6    0  0.1555973E+002  0.1150959E+03  0.7546771E-02  0.1251414E+00
         21   -1    0    0  503  501  0.00000000000E+00  0.00000000000E+00  0.49948039017E+03  0.49948039017E+03  0.00000000000E+00 0. -1.
         21   -1    0    0  504  502 -0.00000000000E+00 -0.00000000000E+00 -0.13993086780E+03  0.13993086780E+03  0.00000000000E+00 0. -1.
         21    1    1    2  503  502 -0.66619924803E+02 -0.70241134729E+02  0.23487398890E+03  0.25404295316E+03  0.00000000000E+00 0. -1.
         21    1    1    2  504  505 -0.33324138677E+02 -0.16535294989E+02 -0.10843554814E+03  0.11463935755E+03  0.00000000000E+00 0. -1.
         21    1    1    2  505  506  0.55913260788E+02  0.24660257324E+02  0.93337177347E+02  0.11156276125E+03  0.00000000000E+00 0. -1.
         21    1    1    2  506  501  0.44030802692E+02  0.62116172395E+02  0.13977390426E+03  0.15916618602E+03  0.00000000000E+00 0. -1.
<scales pt_clust_3="108.68601" pt_clust_4="37.20100" pt_clust_5="33.93056" pt_clust_6="33.93056"></scales>
<clustering>
<clus scale="   33.931">  5  6 -1 -1</clus>
<clus scale="   37.201">  2  4  1 -1</clus>
<clus scale="  108.686">  1  3  2 -1</clus>
<clus scale="  108.686">  1  3  2 -1</clus>
</clustering>
</event>
<event>
 6    0  0.1555973E+002  0.1136359E+03  0.7546771E-02  0.1253981E+00
         21   -1    0    0  505  501  0.00000000000E+00  0.00000000000E+00  0.11751231610E+03  0.11751231610E+03  0.00000000000E+00 0.  1.
         21   -1    0    0  503  502 -0.00000000000E+00 -0.00000000000E+00 -0.42742487199E+03  0.42742487199E+03  0.00000000000E+00 0.  1.
         21    1    1    2  503  501  0.19414479262E+01 -0.53713192874E+02 -0.14459048789E+02  0.55659144807E+02  0.00000000000E+00 0.  1.
         21    1    1    2  504  506 -0.62010862161E+02 -0.48748903822E+02  0.31380415733E+02  0.84891301918E+02  0.00000000000E+00 0.  1.
         21    1    1    2  505  504 -0.39724656567E+02  0.35819839665E+02  0.28273314596E+01  0.53564008963E+02  0.00000000000E+00 0.  1.
         21    1    1    2  506  502  0.99794070801E+02  0.66642257031E+02 -0.32966125429E+03  0.35082273240E+03  0.00000000000E+00 0.  1.
<scales pt_clust_3="46.02166" pt_clust_4="14000.00000" pt_clust_5="53.48934" pt_clust_6="113.63589"></scales>
<clustering>
<clus scale="   53.489">  1  5  2 -1</clus>
<clus scale="   46.022">  1  3  2 -1</clus>
<clus scale="  113.636">  2  6  1 -1</clus>
<clus scale="   53.489">  1  3  2 -1</clus>
</clustering>
</event>
<event>
 6    0  0.1555973E+002  0.1051823E+03  0.7546771E-02  0.1269761E+00
         21   -1    0    0  505  501  0.00000000000E+00  0.00000000000E+00  0.27416668170E+03  0.27416668170E+03  0.00000000000E+00 0.  1.
         21   -1    0    0  504  502 -0.00000000000E+00 -0.00000000000E+00 -0.22265983593E+03  0.22265983593E+03  0.00000000000E+00 0.  1.
         21    1    1    2  503  501 -0.17422346086E+02  0.15898480421E+03  0.85801273162E+02  0.18149811181E+03  0.00000000000E+00 0.  1.
         21    1    1    2  504  506  0.15534584382E+02 -0.37106665171E+02 -0.11932962891E+03  0.12592771040E+03  0.00000000000E+00 0.  1.
         21    1    1    2  505  502 -0.49635140376E+02 -0.63258502990E+02  0.76339315986E+02  0.11087369628E+03  0.00000000000E+00 0.  1.
         21    1    1    2  506  503  0.51522902080E+02 -0.58619636050E+02  0.86958855345E+01  0.78526999144E+02  0.00000000000E+00 0.  1.
<scales pt_clust_3="14000.00000" pt_clust_4="40.22720" pt_clust_5="84.01001" pt_clust_6="105.18231"></scales>
<clustering>
<clus scale="   40.227">  2  4  1 -1</clus>
<clus scale="   84.010">  1  5  2 -1</clus>
<clus scale="  105.182">  2  6  1 -1</clus>
<clus scale="   84.010">  1  3  2 -1</clus>
</clustering>
</event>
<event>
 6    0  0.1555973E+002  0.6764085E+02  0.7546771E-02  0.1368304E+00
         21   -1    0    0  504  501  0.00000000000E+00  0.00000000000E+00  0.37248195486E+02  0.37248195486E+02  0.00000000000E+00 0.  1.
         21   -1    0    0  506  502 -0.00000000000E+00 -0.00000000000E+00 -0.11190167874E+04  0.11190167874E+04  0.00000000000E+00 0.  1.
         21    1    1    2  503  502  0.45399487825E+02  0.48862901023E+02 -0.82121885175E+03  0.82392299340E+03  0.00000000000E+00 0.  1.
         21    1    1    2  504  503  0.64972074167E+02 -0.29985868900E+02 -0.66370539461E+02  0.97599033108E+02  0.00000000000E+00 0.  1.
         21    1    1    2  505  501 -0.70457717604E+02 -0.30149897462E+02 -0.69905056099E+02  0.10373053145E+03  0.00000000000E+00 0.  1.
         21    1    1    2  506  505 -0.39913844388E+02  0.11272865339E+02 -0.12427414461E+03  0.13101242493E+03  0.00000000000E+00 0.  1.
<scales pt_clust_3="59.49776" pt_clust_4="67.64085" pt_clust_5="14000.00000" pt_clust_6="41.47520"></scales>
<clustering>
<clus scale="   41.475">  2  6  1 -1</clus>
<clus scale="   59.498">  2  3  1 -1</clus>
<clus scale="   67.641">  1  4  2 -1</clus>
<clus scale="   67.641">  1  3  2 -1</clus>
</clustering>
</event>
<event>
 6    0  0.1555973E+002  0.1147847E+03  0.7546771E-02  0.1251957E+00
         21   -1    0    0  505  501  0.00000000000E+00  0.00000000000E+00  0.32063792551E+03  0.32063792551E+03  0.00000000000E+00 0. -1.
         21   -1    0    0  504  502 -0.00000000000E+00 -0.00000000000E+00 -0.40139052918E+03  0.40139052918E+03  0.00000000000E+00 0. -1.
         21    1    1    2  503  506  0.34900760626E+02 -0.43773858955E+02  0.12491832686E+03  0.13688974470E+03  0.00000000000E+00 0. -1.
         21    1    1    2  504  503 -0.11877790904E+03  0.10562785363E+02 -0.37109032291E+03  0.38977915781E+03  0.00000000000E+00 0. -1.
         21    1    1    2  505  502  0.50339978397E+02  0.40443843323E+02  0.13439785175E+03  0.14910600405E+03  0.00000000000E+00 0. -1.
         21    1    1    2  506  501  0.33537170021E+02 -0.72327697309E+01  0.31021540627E+02  0.46253548123E+02  0.00000000000E+00 0.  1.
<scales pt_clust_3="69.05392" pt_clust_4="114.78475" pt_clust_5="14000.00000" pt_clust_6="34.30823"></scales>
<clustering>
<clus scale="   34.308">  1  6  2 -1</clus>
<clus scale="   69.054">  1  3  2 -1</clus>
<clus scale="  114.785">  2  4  1 -1</clus>
<clus scale="   34.308">  1  3  2 -1</clus>
</clustering>
</event>
<event>
 6    0  0.1555973E+002  0.8061613E+02  0.7546771E-02  0.1327312E+00
         21   -1    0    0  504  501  0.00000000000E+00  0.00000000000E+00  0.69616164514E+02  0.69616164514E+02  0.00000000000E+00 0. -1.
         21   -1    0    0  503  502 -0.00000000000E+00 -0.00000000000E+00 -0.15824912928E+04  0.15824912928E+04  0.00000000000E+00 0.  1.
         21    1    1    2  503  506  0.16571942294E+02  0.98405566119E+02 -0.47496745387E+03  0.48533737436E+03  0.00000000000E+00 0.  1.
         21    1    1    2  504  505  0.70272668988E+02 -0.37146588676E+02  0.29536780025E+02  0.84797042585E+02  0.00000000000E+00 0. -1.
         21    1    1    2  505  502 -0.59501983783E+02 -0.27391993480E+02 -0.99711141731E+03  0.99926071969E+03  0.00000000000E+00 0.  1.
         21    1    1    2  506  501 -0.27342627499E+02 -0.33866983963E+02 -0.70333037169E+02  0.82712320719E+02  0.00000000000E+00 0.  1.
<scales pt_clust_3="14000.00000" pt_clust_4="80.61613" pt_clust_5="66.16584" pt_clust_6="43.52691"></scales>
<clustering>
<clus scale="   43.527">  1  6  2 -1</clus>
<clus scale="   66.166">  2  5  1 -1</clus>
<clus scale="   80.616">  1  4  2 -1</clus>
<clus scale="   43.527">  1  3  2 -1</clus>
</clustering>
</event>
<event>
 6    0  0.1555973E+002  0.3205876E+03  0.7546771E-02  0.1075379E+00
         21   -1    0    0  506  501  0.00000000000E+00  0.00000000000E+00  0.60479780980E+03  0.60479780980E+03  0.00000000000E+00 0.  1.
         21   -1    0    0  504  502 -0.00000000000E+00 -0.00000000000E+00 -0.24693944261E+03  0.24693944261E+03  0.00000000000E+00 0.  1.
         21    1    1    2  503  502 -0.14096592693E+03  0.91922724410E+02  0.29051888130E+03  0.33574156759E+03  0.00000000000E+00 0.  1.
         21    1    1    2  504  505  0.97641672277E+02 -0.14110496361E+03 -0.42131034982E+02  0.17669049502E+03  0.00000000000E+00 0.  1.
         21    1    1    2  505  501  0.14898484918E+03  0.15608080018E+01 -0.36030495405E+02  0.15328769685E+03  0.00000000000E+00 0.  1.
         21    1    1    2  506  503 -0.10566059453E+03  0.47621431200E+02  0.14550101628E+03  0.18601749295E+03  0.00000000000E+00 0.  1.
<scales pt_clust_3="286.56442" pt_clust_4="139.70824" pt_clust_5="139.70824" pt_clust_6="35.42221"></scales>
<clustering>
<clus scale="   35.422">  3  6 -1 -1</clus>
<clus scale="  139.708">  4  5 -1 -1</clus>
<clus scale="  286.564">  1  3  2 -1</clus>
<clus scale="  286.564">  1  3  2 -1</clus>
</clustering>
</event>
<event>
 6    0  0.1555973E+002  0.9751146E+02  0.7546771E-02  0.1285618E+00
         21   -1    0    0  503  501  0.00000000000E+00  0.00000000000E+00  0.74118081673E+03  0.74118081673E+03  0.00000000000E+00 0.  1.
         21   -1    0    0  506  502 -0.00000000000E+00 -0.00000000000E+00 -0.10836787626E+03  0.10836787626E+03  0.00000000000E+00 0.  1.
         21    1    1    2  503  504  0.10512822526E+02  0.32862120611E+02  0.71315115431E+02  0.79223002325E+02  0.00000000000E+00 0.  1.
         21    1    1    2  504  505  0.90663296406E+02  0.33085303388E+02  0.38834838338E+03  0.40016113940E+03  0.00000000000E+00 0.  1.
         21    1    1    2  505  502 -0.43458414312E+02  0.19191082042E+02 -0.82164376705E+02  0.94910042692E+02  0.00000000000E+00 0.  1.
         21    1    1    2  506  501 -0.57717704620E+02 -0.85138506040E+02  0.25531381837E+03  0.27525450857E+03  0.00000000000E+00 0.  1.
<scales pt_clust_3="34.50273" pt_clust_4="97.51146" pt_clust_5="47.54331" pt_clust_6="14000.00000"></scales>
<clustering>
<clus scale="   34.503">  1  3  2 -1</clus>
<clus scale="   47.543">  2  5  1 -1</clus>
<clus scale="   97.511">  1  4  2 -1</clus>
<clus scale="   34.503">  1  3  2 -1</clus>
</clustering>
</event>
<event>
 6    0  0.1555973E+002  0.3966959E+03  0.7546771E-02  0.1044930E+00
         21   -1    0    0  506  501  0.00000000000E+00  0.00000000000E+00  0.33141452119E+03  0.33141452119E+03  0.00000000000E+00 0. -1.
         21   -1    0    0  505  502 -0.00000000000E+00 -0.00000000000E+00 -0.13540027673E+04  0.13540027673E+04  0.00000000000E+00 0. -1.
         21    1    1    2  503  501  0.36613567761E+03 -0.11638727615E+03  0.10604891432E+03  0.39855702816E+03  0.00000000000E+00 0. -1.
         21    1    1    2  504  503 -0.44707097056E+03  0.12939817197E+03 -0.73464703334E+03  0.86966809947E+03  0.00000000000E+00 0. -1.
         21    1    1    2  505  504  0.18320038644E+02 -0.35323625958E+02 -0.29673493702E+03  0.29939105734E+03  0.00000000000E+00 0.  1.
         21    1    1    2  506  502  0.62615254300E+02  0.22312730132E+02 -0.97255190073E+02  0.11780110353E+03  0.00000000000E+00 0. -1.
<scales pt_clust_3="14000.00000" pt_clust_4="396.69591" pt_clust_5="39.79174" pt_clust_6="67.14203"></scales>
<clustering>
<clus scale="   39.792">  2  5  1 -1</clus>
<clus scale="   67.142">  2  6  1 -1</clus>
<clus scale="  396.696">  2  4  1 -1</clus>
<clus scale="  396.696">  1  3  2 -1</clus>
</clustering>
</event>
<event>
 6    0  0.1555973E+002  0.1549803E+03  0.7546771E-02  0.1194483E+00
         21   -1    0    0  503  501  0.00000000000E+00  0.00000000000E+00  0.41270830530E+03  0.41270830530E+03  0.00000000000E+00 0. -1.
         21   -1    0    0  506  502 -0.00000000000E+00 -0.00000000000E+00 -0.73462402336E+02  0.73462402336E+02  0.00000000000E+00 0. -1.
         21    1    1    2  503  505  0.33432948334E+02 -0.13785336059E+02  0.30554893903E+02  0.47343416290E+02  0.00000000000E+00 0. -1.
         21    1    1    2  504  502 -0.10531273341E+03  0.83568159152E+02  0.61789987489E+02  0.14796084480E+03  0.00000000000E+00 0. -1.
         21    1    1    2  505  504  0.66723062304E+02 -0.99921779701E+02  0.21731736313E+03  0.24832069068E+03  0.00000000000E+00 0. -1.
         21    1    1    2  506  501  0.51567227674E+01  0.30138956608E+02  0.29583658442E+02  0.42545755863E+02  0.00000000000E+00 0. -1.
<scales pt_clust_3="30.12950" pt_clust_4="144.92354" pt_clust_5="30.12950" pt_clust_6="30.57693"></scales>
<clustering>
<clus scale="   30.129">  3  5 -1 -1</clus>
<clus scale="   30.577">  2  6  1 -1</clus>
<clus scale="  144.924">  2  4  1 -1</clus>
<clus scale="  154.980">  1  3  2 -1</clus>
</clustering>
</event>
<event>
 6    0  0.1555973E+002  0.2160786E+03  0.7546771E-02  0.1136841E+00
         21   -1    0    0  502  501  0.00000000000E+00  0.00000000000E+00  0.32611749927E+03  0.32611749927E+03  0.00000000000E+00 0. -1.
         21   -1    0    0  504  502 -0.00000000000E+00 -0.00000000000E+00 -0.32823473161E+03  0.32823473161E+03  0.00000000000E+00 0.  1.
         21    1    1    2  503  505 -0.69756479798E+02 -0.10582446282E+03  0.90258407428E+02  0.15560001130E+03  0.00000000000E+00 0. -1.
         21    1    1    2  504  506  0.30128494596E+02  0.33279312002E+02 -0.16127857708E+03  0.16740973156E+03  0.00000000000E+00 0.  1.
         21    1    1    2  505  501  0.24662534387E+02 -0.90962819502E+02  0.12614020669E+03  0.15746055658E+03  0.00000000000E+00 0. -1.
         21    1    1    2  506  503  0.14965450815E+02  0.16350797032E+03 -0.57237269374E+02  0.17388193144E+03  0.00000000000E+00 0.  1.
<scales pt_clust_3="90.16822" pt_clust_4="44.89141" pt_clust_5="90.16822" pt_clust_6="190.44713"></scales>
<clustering>
<clus scale="   44.891">  2  4  1 -1</clus>
<clus scale="   90.168">  3  5 -1 -1</clus>
<clus scale="  190.447">  2  6  1 -1</clus>
<clus scale="  216.079">  1  3  2 -1</clus>
</clustering>
</event>
<event>
 6    0  0.1555973E+002  0.1061590E+03  0.7546771E-02  0.1267853E+00
         21   -1    0    0  506  501  0.00000000000E+00  0.00000000000E+00  0.44035445120E+03  0.44035445120E+03  0.00000000000E+00 0.  1.
         21   -1    0    0  503  502 -0.00000000000E+00 -0.00000000000E+00 -0.47977519303E+03  0.47977519303E+03  0.00000000000E+00 0.  1.
         21    1    1    2  503  504 -0.29246219564E+02 -0.34302840315E+02 -0.41361717626E+03  0.41606633451E+03  0.00000000000E+00 0.  1.
         21    1    1    2  504  505  0.49358104872E+02 -0.12545485284E+03  0.79131734192E+02  0.15632329952E+03  0.00000000000E+00 0.  1.
         21    1    1    2  505  501 -0.39878708728E+02  0.90265025343E+02  0.23093189607E+03  0.25113268770E+03  0.00000000000E+00 0.  1.
         21    1    1    2  506  502  0.19766823420E+02  0.69492667810E+02  0.64132804178E+02  0.96607322492E+02  0.00000000000E+00 0. -1.
<scales pt_clust_3="45.07800" pt_clust_4="106.15896" pt_clust_5="14000.00000" pt_clust_6="62.17487"></scales>
<clustering>
<clus scale="   45.078">  2  3  1 -1</clus>
<clus scale="   62.175">  2  6  1 -1</clus>
<clus scale="  106.159">  2  4  1 -1</clus>
<clus scale="  106.159">  1  3  2 -1</clus>
</clustering>
</event>
<event>
 6    0  0.1555973E+002  0.1405916E+03  0.7546771E-02  0.1212535E+00
         21   -1    0    0  505  501  0.00000000000E+00  0.00000000000E+00  0.51340484846E+03  0.51340484846E+03  0.00000000000E+00 0. -1.
         21   -1    0    0  503  502 -0.00000000000E+00 -0.00000000000E+00 -0.89462022700E+02  0.89462022700E+02  0.00000000000E+00 0.  1.
         21    1    1    2  503  506 -0.70671735474E+02  0.12751057085E+03  0.33851256452E+01  0.14582489139E+03  0.00000000000E+00 0.  1.
         21    1    1    2  504  502  0.97491817178E+01 -0.42530657047E+02  0.41810070349E+02  0.60431658223E+02  0.00000000000E+00 0. -1.
         21    1    1    2  505  504  0.96294169917E+01 -0.56820673469E+02  0.15598815438E+03  0.16629377292E+03  0.00000000000E+00 0. -1.
         21    1    1    2  506  501  0.51293136765E+02 -0.28159240338E+02  0.22275947539E+03  0.23031654863E+03  0.00000000000E+00 0. -1.
<scales pt_clust_3="133.16130" pt_clust_4="39.24337" pt_clust_5="39.24337" pt_clust_6="58.51435"></scales>
<clustering>
<clus scale="   39.243">  4  5 -1 -1</clus>
<clus scale="   58.514">  1  6  2 -1</clus>
<clus scale="  133.161">  2  3  1 -1</clus>
<clus scale="   58.514">  1  3  2 -1</clus>
</clustering>
</event>
<event>
 6    0  0.1555973E+002  0.1473189E+03  0.7546771E-02  0.1203807E+00
         21   -1    0    0  505  501  0.00000000000E+00  0.00000000000E+00  0.23885602829E+03  0.23885602829E+03  0.00000000000E+00 0. -1.
         21   -1    0    0  504  502 -0.00000000000E+00 -0.00000000000E+00 -0.12430588419E+04  0.12430588419E+04  0.00000000000E+00 0.  1.
         21    1    1    2  503  501 -0.66961186218E+02 -0.18087851282E+02  0.19864110011E+02  0.72149523147E+02  0.00000000000E+00 0. -1.
         21    1    1    2  504  503 -0.56451184184E+02 -0.57577228066E+02  0.91634225537E+02  0.12206025019E+03  0.00000000000E+00 0. -1.
         21    1    1    2  505  506  0.65078056885E+02  0.10702944192E+03  0.38933312925E+02  0.13117262588E+03  0.00000000000E+00 0. -1.
         21    1    1    2  506  502  0.58334313517E+02 -0.31364362569E+02 -0.11546344621E+04  0.11565324710E+04  0.00000000000E+00 0.  1.
<scales pt_clust_3="61.02804" pt_clust_4="61.02804" pt_clust_5="131.80710" pt_clust_6="66.23153"></scales>
<clustering>
<clus scale="   61.028">  3  4 -1 -1</clus>
<clus scale="   66.232">  2  6  1 -1</clus>
<clus scale="  131.807">  2  5  1 -1</clus>
<clus scale="  147.319">  1  3  2 -1</clus>
</clustering>
</event>
<event>
 6    0  0.1555973E+002  0.2064457E+03  0.7546771E-02  0.1144412E+00
         21   -1    0    0  503  501  0.00000000000E+00  0.00000000000E+00  0.39599812198E+03  0.39599812198E+03  0.00000000000E+00 0. -1.
         21   -1    0    0  506  502 -0.00000000000E+00 -0.00000000000E+00 -0.18714294469E+04  0.18714294469E+04  0.00000000000E+00 0.  1.
         21    1    1    2  503  504 -0.13265395862E+03 -0.19451742666E+03  0.33002841393E+03  0.40540455845E+03  0.00000000000E+00 0. -1.
         21    1    1    2  504  505  0.92536022815E+02  0.99517356277E+02 -0.31220879335E+03  0.34050102843E+03  0.00000000000E+00 0. -1.
         21    1    1    2  505  502  0.69252279250E+02  0.54030919534E+02 -0.14567514856E+04  0.14593971732E+04  0.00000000000E+00 0.  1.
         21    1    1    2  506  501 -0.29134343449E+02  0.40969150846E+02 -0.36499459881E+02  0.62124808738E+02  0.00000000000E+00 0.  1.
<scales pt_clust_3="206.44565" pt_clust_4="14000.00000" pt_clust_5="87.84419" pt_clust_6="50.27207"></scales>
<clustering>
<clus scale="   50.272">  1  6  2 -1</clus>
<clus scale="   87.844">  2  5  1 -1</clus>
<clus scale="  206.446">  1  3  2 -1</clus>
<clus scale="   50.272">  1  3  2 -1</clus>
</clustering>
</event>
<event>
 6    0  0.1555973E+002  0.1378644E+03  0.7546771E-02  0.1216232E+00
         21   -1    0    0  503  501  0.00000000000E+00  0.00000000000E+00  0.80552373206E+03  0.80552373206E+03  0.00000000000E+00 0.  1.
         21   -1    0    0  506  502 -0.00000000000E+00 -0.00000000000E+00 -0.47795841835E+02  0.47795841835E+02  0.00000000000E+00 0.  1.
         21    1    1    2  503  505 -0.35175887787E+02 -0.29860626495E+02  0.89942942672E+02  0.10108774917E+03  0.00000000000E+00 0. -1.
         21    1    1    2  504  501 -0.38603763440E+02  0.52972606015E+01  0.30243813662E+03  0.30493792484E+03  0.00000000000E+00 0.  1.
         21    1    1    2  505  502  0.12423843736E+03  0.60500736922E+02  0.89642861046E+02  0.16471603147E+03  0.00000000000E+00 0.  1.
         21    1    1    2  506  504 -0.50458786137E+02 -0.35937371029E+02  0.27570394989E+03  0.28257786842E+03  0.00000000000E+00 0.  1.
<scales pt_clust_3="46.14109" pt_clust_4="35.95780" pt_clust_5="130.19608" pt_clust_6="35.95780"></scales>
<clustering>
<clus scale="   35.958">  4  6 -1 -1</clus>
<clus scale="   46.141">  1  3  2 -1</clus>
<clus scale="  130.196">  2  5  1 -1</clus>
<clus scale="   46.141">  1  3  2 -1</clus>
</clustering>
</event>
<event>
 6    0  0.1938156E+002  0.1113625E+03  0.7546771E-02  0.1258067E+00
         21   -1    0    0  505  501  0.00000000000E+00  0.00000000000E+00  0.28453476861E+03  0.28453476861E+03  0.00000000000E+00 0.  1.
         21   -1    0    0  504  502 -0.00000000000E+00 -0.00000000000E+00 -0.91155610672E+03  0.91155610672E+03  0.00000000000E+00 0.  1.
         21    1    1    2  503  501  0.98612627051E+01  0.30125073961E+02  0.28231266809E+02  0.42447249721E+02  0.00000000000E+00 0.  1.
         21    1    1    2  504  506 -0.35372776693E+02  0.68447561380E+01 -0.71899148056E+03  0.71989362627E+03  0.00000000000E+00 0.  1.
         21    1    1    2  505  502  0.77480925951E+02  0.45149328915E+02  0.22682257147E+03  0.24390620065E+03  0.00000000000E+00 0.  1.
         21    1    1    2  506  503 -0.51969411963E+02 -0.82119159014E+02 -0.16308369582E+03  0.18984379869E+03  0.00000000000E+00 0.  1.
<scales pt_clust_3="31.69802" pt_clust_4="36.02181" pt_clust_5="14000.00000" pt_clust_6="111.36248"></scales>
<clustering>
<clus scale="   31.698">  1  3  2 -1</clus>
<clus scale="   36.022">  2  4  1 -1</clus>
<clus scale="  111.362">  2  6  1 -1</clus>
<clus scale="   31.698">  1  3  2 -1</clus>
</clustering>
</event>
<event>
 6    0  0.1555973E+002  0.1282389E+03  0.7546771E-02  0.1230093E+00
         21   -1    0    0  505  501  0.00000000000E+00  0.00000000000E+00  0.51286312183E+03  0.51286312183E+03  0.00000000000E+00 0.  1.
         21   -1    0    0  506  502 -0.00000000000E+00 -0.00000000000E+00 -0.45151924973E+03  0.45151924973E+03  0.00000000000E+00 0.  1.
         21    1    1    2  503  504 -0.37883889002E+02  0.74585279508E+02  0.56907262819E+02  0.10117603237E+03  0.00000000000E+00 0.  1.
         21    1    1    2  504  501 -0.12017527712E+03  0.23610538700E+02  0.27012391414E+03  0.29659144249E+03  0.00000000000E+00 0.  1.
         21    1    1    2  505  502  0.13344187446E+03 -0.61241141108E+02  0.11303733584E+03  0.18529611576E+03  0.00000000000E+00 0.  1.
         21    1    1    2  506  503  0.24617291670E+02 -0.36954677099E+02 -0.37872464071E+03  0.38131878093E+03  0.00000000000E+00 0.  1.
<scales pt_clust_3="70.02213" pt_clust_4="128.23886" pt_clust_5="14000.00000" pt_clust_6="44.40337"></scales>
<clustering>
<clus scale="   44.403">  2  6  1 -1</clus>
<clus scale="   70.022">  2  3  1 -1</clus>
<clus scale="  128.239">  1  4  2 -1</clus>
<clus scale="  128.239">  1  3  2 -1</clus>
</clustering>
</event>
<event>
 6    0  0.1555973E+002  0.1002027E+03  0.7546771E-02  0.1279870E+00
         21   -1    0    0  504  501  0.00000000000E+00  0.00000000000E+00  0.12918076142E+04  0.12918076142E+04  0.00000000000E+00 0.  1.
         21   -1    0    0  503  502 -0.00000000000E+00 -0.00000000000E+00 -0.93564444763E+02  0.93564444763E+02  0.00000000000E+00 0.  1.
         21    1    1    2  503  506 -0.12533446542E+03 -0.57936631164E+02  0.66560586682E+03  0.67977683941E+03  0.00000000000E+00 0.  1.
         21    1    1    2  504  505  0.32743309099E+02  0.45734929597E+01  0.92379019013E+02  0.98116890913E+02  0.00000000000E+00 0. -1.
         21    1    1    2  505  502  0.29306492725E+02  0.21123464047E+02 -0.77165293413E+02  0.85203014950E+02  0.00000000000E+00 0.  1.
         21    1    1    2  506  501  0.63284663601E+02  0.32239674158E+02  0.51742357698E+03  0.52227531365E+03  0.00000000000E+00 0.  1.
<scales pt_clust_3="14000.00000" pt_clust_4="33.06117" pt_clust_5="36.22400" pt_clust_6="100.20273"></scales>
<clustering>
<clus scale="   33.061">  1  4  2 -1</clus>
<clus scale="   36.224">  2  5  1 -1</clus>
<clus scale="  100.203">  1  6  2 -1</clus>
<clus scale="   33.061">  1  3  2 -1</clus>
</clustering>
</event>
<event>
 6    0  0.1555973E+002  0.9657243E+02  0.7546771E-02  0.1287673E+00
         21   -1    0    0  504  501  0.00000000000E+00  0.00000000000E+00  0.53008607415E+03  0.53008607415E+03  0.00000000000E+00 0. -1.
         21   -1    0    0  503  502 -0.00000000000E+00 -0.00000000000E+00 -0.95258621721E+02  0.95258621721E+02  0.00000000000E+00 0.  1.
         21    1    1    2  503  506 -0.10162778819E+03  0.12716267631E+02  0.15935182649E+03  0.18942786331E+03  0.00000000000E+00 0.  1.
         21    1    1    2  504  502  0.52393666997E+01 -0.71957730288E+02 -0.45381412058E+02  0.85234021799E+02  0.00000000000E+00 0.  1.
         21    1    1    2  505  501  0.66198819865E+01  0.43510949908E+02  0.60346863579E+02  0.74691161078E+02  0.00000000000E+00 0. -1.
         21    1    1    2  506  505  0.89768539503E+02  0.15730512750E+02  0.26051017442E+03  0.27599164968E+03  0.00000000000E+00 0. -1.
<scales pt_clust_3="14000.00000" pt_clust_4="70.30079" pt_clust_5="44.01165" pt_clust_6="96.57243"></scales>
<clustering>
<clus scale="   44.012">  1  5  2 -1</clus>
<clus scale="   70.301">  2  4  1 -1</clus>
<clus scale="   96.572">  1  6  2 -1</clus>
<clus scale="   44.012">  1  3  2 -1</clus>
</clustering>
</event>
<event>
 6    0  0.1555973E+002  0.2574850E+03  0.7546771E-02  0.1108664E+00
         21   -1    0    0  505  501  0.00000000000E+00  0.00000000000E+00  0.73570458200E+03  0.73570458200E+03  0.00000000000E+00 0. -1.
         21   -1    0    0  506  502 -0.00000000000E+00 -0.00000000000E+00 -0.45750956990E+03  0.45750956990E+03  0.00000000000E+00 0.  1.
         21    1    1    2  503  504 -0.70612711241E+02 -0.50305066679E+01  0.12952362223E+03  0.14760701102E+03  0.00000000000E+00 0. -1.
         21    1    1    2  504  501 -0.66253576981E+02  0.38924816257E+02  0.42793603887E+03  0.43478032516E+03  0.00000000000E+00 0. -1.
         21    1    1    2  505  502  0.25421491340E+03 -0.53029887377E+02 -0.37640299241E+03  0.45729268947E+03  0.00000000000E+00 0.  1.
         21    1    1    2  506  503 -0.11734862517E+03  0.19135577789E+02  0.97138343408E+02  0.15353412626E+03  0.00000000000E+00 0. -1.
<scales pt_clust_3="47.45249" pt_clust_4="76.84190" pt_clust_5="250.03316" pt_clust_6="47.45249"></scales>
<clustering>
<clus scale="   47.452">  3  6 -1 -1</clus>
<clus scale="   76.842">  1  4  2 -1</clus>
<clus scale="  250.033">  2  5  1 -1</clus>
<clus scale="   76.842">  1  3  2 -1</clus>
</clustering>
</event>
<event>
 6    0  0.1555973E+002  0.2809485E+03  0.7546771E-02  0.1095172E+00
         21   -1    0    0  502  501  0.00000000000E+00  0.00000000000E+00  0.30005855521E+03  0.30005855521E+03  0.00000000000E+00 0. -1.
         21   -1    0    0  505  502 -0.00000000000E+00 -0.00000000000E+00 -0.68826117915E+03  0.68826117915E+03  0.00000000000E+00 0. -1.
         21    1    1    2  503  501  0.50023079918E+02  0.27999011087E+02  0.11177326368E+03  0.12561654198E+03  0.00000000000E+00 0.  1.
         21    1    1    2  504  503 -0.25448779290E+03 -0.19481518275E+03 -0.92467266109E+02  0.33356736571E+03  0.00000000000E+00 0. -1.
         21    1    1    2  505  506  0.29223774313E+02 -0.27401900028E+02 -0.17378055588E+03  0.17833837140E+03  0.00000000000E+00 0. -1.
         21    1    1    2  506  504  0.17524093867E+03  0.19421807170E+03 -0.23372806562E+03  0.35079745526E+03  0.00000000000E+00 0. -1.
<scales pt_clust_3="57.49191" pt_clust_4="280.94849" pt_clust_5="40.06112" pt_clust_6="14000.00000"></scales>
<clustering>
<clus scale="   40.061">  2  5  1 -1</clus>
<clus scale="   57.492">  1  3  2 -1</clus>
<clus scale="  280.948">  1  4  2 -1</clus>
<clus scale="   57.492">  1  3  2 -1</clus>
</clustering>
</event>
<event>
 6    0  0.1555973E+002  0.1599323E+03  0.7546771E-02  0.1188773E+00
         21   -1    0    0  504  501  0.00000000000E+00  0.00000000000E+00  0.38793449217E+03  0.38793449217E+03  0.00000000000E+00 0.  1.
         21   -1    0    0  503  502 -0.00000000000E+00 -0.00000000000E+00 -0.11956979336E+04  0.11956979336E+04  0.00000000000E+00 0.  1.
         21    1    1    2  503  506 -0.15164449717E+03 -0.16534504018E+02 -0.11582713835E+04  0.11682731021E+04  0.00000000000E+00 0.  1.
         21    1    1    2  504  505  0.71355246562E+02  0.21470785973E+02  0.12375163139E+03  0.14445425620E+03  0.00000000000E+00 0.  1.
         21    1    1    2  505  502  0.51263983777E+02  0.51749632499E+02  0.67186247507E+02  0.99095975450E+02  0.00000000000E+00 0.  1.
         21    1    1    2  506  501  0.29025266830E+02 -0.56685914454E+02  0.15957006320E+03  0.17180909196E+03  0.00000000000E+00 0.  1.
<scales pt_clust_3="152.03814" pt_clust_4="49.06567" pt_clust_5="49.06567" pt_clust_6="63.68484"></scales>
<clustering>
<clus scale="   49.066">  4  5 -1 -1</clus>
<clus scale="   63.685">  1  6  2 -1</clus>
<clus scale="  152.038">  2  3  1 -1</clus>
<clus scale="   63.685">  1  3  2 -1</clus>
</clustering>
</event>
<event>
 6    0  0.1555973E+002  0.1499751E+03  0.7546771E-02  0.1200504E+00
         21   -1    0    0  503  501  0.00000000000E+00  0.00000000000E+00  0.12093700104E+04  0.12093700104E+04  0.00000000000E+00 0.  1.
         21   -1    0    0  506  502 -0.00000000000E+00 -0.00000000000E+00 -0.40146553718E+02  0.40146553718E+02  0.00000000000E+00 0.  1.
         21    1    1    2  503  504  0.65886070458E+02  0.17507647360E+01  0.30057426337E+03  0.30771565975E+03  0.00000000000E+00 0.  1.
         21    1    1    2  504  505  0.58970641742E+02 -0.14170803769E+02  0.13316444066E+03  0.14632537895E+03  0.00000000000E+00 0.  1.
         21    1    1    2  505  502  0.30964883595E+02  0.55086047545E+02  0.26854019858E+02  0.68661743589E+02  0.00000000000E+00 0.  1.
         21    1    1    2  506  501 -0.15582159580E+03 -0.42666008512E+02  0.70863073284E+03  0.72681378187E+03  0.00000000000E+00 0.  1.
<scales pt_clust_3="45.80988" pt_clust_4="45.80988" pt_clust_5="63.19254" pt_clust_6="142.16886"></scales>
<clustering>
<clus scale="   45.810">  3  4 -1 -1</clus>
<clus scale="   63.193">  2  5  1 -1</clus>
<clus scale="  142.169">  1  6  2 -1</clus>
<clus scale="  142.169">  1  3  2 -1</clus>
</clustering>
</event>
<event>
 6    0  0.1555973E+002  0.1117861E+03  0.7546771E-02  0.1257298E+00
         21   -1    0    0  504  501  0.00000000000E+00  0.00000000000E+00  0.30692436107E+03  0.30692436107E+03  0.00000000000E+00 0. -1.
         21   -1    0    0  503  502 -0.00000000000E+00 -0.00000000000E+00 -0.33864898332E+03  0.33864898332E+03  0.00000000000E+00 0. -1.
         21    1    1    2  503  506  0.33059853637E+02 -0.28856320050E+02 -0.21281846307E+03  0.21729551158E+03  0.00000000000E+00 0. -1.
         21    1    1    2  504  505 -0.90164504803E+01 -0.71795586585E+02  0.16635836395E+03  0.18141391316E+03  0.00000000000E+00 0. -1.
         21    1    1    2  505  502 -0.53634017638E+02 -0.58663932703E+02  0.28018383354E+02  0.84279859124E+02  0.00000000000E+00 0.  1.
         21    1    1    2  506  501  0.29590614482E+02  0.15931583934E+03 -0.13282906478E+02  0.16258406052E+03  0.00000000000E+00 0.  1.
<scales pt_clust_3="43.88213" pt_clust_4="73.88578" pt_clust_5="111.78612" pt_clust_6="14000.00000"></scales>
<clustering>
<clus scale="   43.882">  2  3  1 -1</clus>
<clus scale="   73.886">  1  4  2 -1</clus>
<clus scale="  111.786">  2  5  1 -1</clus>
<clus scale="   73.886">  1  3  2 -1</clus>
</clustering>
</event>
<event>
 6    0  0.1555973E+002  0.6620266E+02  0.7546771E-02  0.1373504E+00
         21   -1    0    0  504  501  0.00000000000E+00  0.00000000000E+00  0.71668272845E+03  0.71668272845E+03  0.00000000000E+00 0.  1.
         21   -1    0    0  506  502 -0.00000000000E+00 -0.00000000000E+00 -0.79712982735E+02  0.79712982735E+02  0.00000000000E+00 0. -1.
         21    1    1    2  503  501 -0.24922724138E+02 -0.50929741118E+02  0.24397125151E+03  0.25047345622E+03  0.00000000000E+00 0.  1.
         21    1    1    2  504  502 -0.81515468436E+02 -0.84906876000E+01  0.13411371557E+03  0.15717300046E+03  0.00000000000E+00 0.  1.
         21    1    1    2  505  503  0.42062329023E+02  0.62083777958E+02  0.30203402330E+03  0.31120441231E+03  0.00000000000E+00 0.  1.
         21    1    1    2  506  505  0.64375863551E+02 -0.26633492395E+01 -0.43149244658E+02  0.77544842199E+02  0.00000000000E+00 0. -1.
<scales pt_clust_3="56.70080" pt_clust_4="66.20266" pt_clust_5="38.67082" pt_clust_6="14000.00000"></scales>
<clustering>
<clus scale="   56.701">  1  3  2 -1</clus>
<clus scale="   38.671">  1  5  2 -1</clus>
<clus scale="   66.203">  1  4  2 -1</clus>
<clus scale="   56.701">  1  3  2 -1</clus>
</clustering>
</event>
<event>
 6    0  0.1555973E+002  0.1111274E+03  0.7546771E-02  0.1258496E+00
         21   -1    0    0  503  501  0.00000000000E+00  0.00000000000E+00  0.52863776326E+03  0.52863776326E+03  0.00000000000E+00 0. -1.
         21   -1    0    0  506  502 -0.00000000000E+00 -0.00000000000E+00 -0.18005875200E+03  0.18005875200E+03  0.00000000000E+00 0.  1.
         21    1    1    2  503  504 -0.78266381996E+02 -0.60002874723E+02  0.24084218448E+03  0.26025166541E+03  0.00000000000E+00 0. -1.
         21    1    1    2  504  502 -0.27287882580E+02  0.96963493386E+02 -0.11189123885E+03  0.15055297047E+03  0.00000000000E+00 0.  1.
         21    1    1    2  505  501  0.25769283066E+02 -0.52954526976E+02  0.20740834880E+03  0.21560719150E+03  0.00000000000E+00 0. -1.
         21    1    1    2  506  505  0.79784981510E+02  0.15993908313E+02  0.12219716836E+02  0.82284687866E+02  0.00000000000E+00 0. -1.
<scales pt_clust_3="111.12736" pt_clust_4="14000.00000" pt_clust_5="58.89175" pt_clust_6="84.01632"></scales>
<clustering>
<clus scale="   58.892">  1  5  2 -1</clus>
<clus scale="   84.016">  2  6  1 -1</clus>
<clus scale="  111.127">  1  3  2 -1</clus>
<clus scale="   58.892">  1  3  2 -1</clus>
</clustering>
</event>
<event>
 6    0  0.1555973E+002  0.2532851E+03  0.7546771E-02  0.1111246E+00
         21   -1    0    0  505  501  0.00000000000E+00  0.00000000000E+00  0.14395927681E+04  0.14395927681E+04  0.00000000000E+00 0. -1.
         21   -1    0    0  504  502 -0.00000000000E+00 -0.00000000000E+00 -0.19065633643E+03  0.19065633643E+03  0.00000000000E+00 0. -1.
         21    1    1    2  503  502 -0.18477049149E+03 -0.79131106543E+02  0.75535390956E+03  0.78164019551E+03  0.00000000000E+00 0. -1.
         21    1    1    2  504  506  0.24456213318E+03  0.30212648332E+01 -0.79164371364E+02  0.25707345783E+03  0.00000000000E+00 0. -1.
         21    1    1    2  505  503 -0.65402164217E+02  0.22902399760E+01  0.17243993138E+03  0.18444028361E+03  0.00000000000E+00 0. -1.
         21    1    1    2  506  501  0.56105225265E+01  0.73819601734E+02  0.40030696212E+03  0.40709516760E+03  0.00000000000E+00 0. -1.
<scales pt_clust_3="36.17419" pt_clust_4="245.22263" pt_clust_5="36.17419" pt_clust_6="74.03250"></scales>
<clustering>
<clus scale="   36.174">  3  5 -1 -1</clus>
<clus scale="   74.033">  1  6  2 -1</clus>
<clus scale="  245.223">  2  4  1 -1</clus>
<clus scale="   74.033">  1  3  2 -1</clus>
</clustering>
</event>
<event>
 6    0  0.1555973E+002  0.1164595E+03  0.7546771E-02  0.1249055E+00
         21   -1    0    0  504  501  0.00000000000E+00  0.00000000000E+00  0.20939847306E+03  0.20939847306E+03  0.00000000000E+00 0.  1.
         21   -1    0    0  506  502 -0.00000000000E+00 -0.00000000000E+00 -0.50169142624E+03  0.50169142624E+03  0.00000000000E+00 0.  1.
         21    1    1    2  503  501  0.17499483386E+02 -0.48374157678E+02  0.88498237875E+02  0.10236322170E+03  0.00000000000E+00 0.  1.
         21    1    1    2  504  502  0.16006131421E+02  0.15050041143E+03 -0.47291168940E+02  0.15856552192E+03  0.00000000000E+00 0.  1.
         21    1    1    2  505  503 -0.42406585084E+01 -0.84005551830E+02  0.26755215506E+02  0.88265267686E+02  0.00000000000E+00 0.  1.
         21    1    1    2  506  505 -0.29264956298E+02 -0.18120701920E+02 -0.36025523762E+03  0.36189588799E+03  0.00000000000E+00 0.  1.
<scales pt_clust_3="51.81801" pt_clust_4="116.45950" pt_clust_5="14000.00000" pt_clust_6="34.42089"></scales>
<clustering>
<clus scale="   34.421">  2  6  1 -1</clus>
<clus scale="   51.818">  1  3  2 -1</clus>
<clus scale="  116.459">  2  4  1 -1</clus>
<clus scale="   51.818">  1  3  2 -1</clus>
</clustering>
</event>
<event>
 6    0  0.1555973E+002  0.1143503E+03  0.7546771E-02  0.1252719E+00
         21   -1    0    0  504  501  0.00000000000E+00  0.00000000000E+00  0.15358342180E+04  0.15358342180E+04  0.00000000000E+00 0.  1.
         21   -1    0    0  506  502 -0.00000000000E+00 -0.00000000000E+00 -0.12086456743E+03  0.12086456743E+03  0.00000000000E+00 0.  1.
         21    1    1    2  503  501 -0.15466532683E+02 -0.26404255678E+02  0.11516462141E+03  0.11916076693E+03  0.00000000000E+00 0. -1.
         21    1    1    2  504  505 -0.16041934802E+02  0.10478147703E+03  0.98824433554E+03  0.99391315935E+03  0.00000000000E+00 0.  1.
         21    1    1    2  505  502  0.77832512037E+02 -0.84800699940E+02 -0.85773114260E+02  0.14354820016E+03  0.00000000000E+00 0.  1.
         21    1    1    2  506  503 -0.46324044552E+02  0.64234785850E+01  0.39733380790E+03  0.40007665901E+03  0.00000000000E+00 0. -1.
<scales pt_clust_3="30.60063" pt_clust_4="14000.00000" pt_clust_5="114.35033" pt_clust_6="50.68059"></scales>
<clustering>
<clus scale="   30.601">  1  3  2 -1</clus>
<clus scale="   50.681">  1  6  2 -1</clus>
<clus scale="  114.350">  2  5  1 -1</clus>
<clus scale="   30.601">  1  3  2 -1</clus>
</clustering>
</event>
<event>
 6    0  0.1555973E+002  0.1787137E+03  0.7546771E-02  0.1169054E+00
         21   -1    0    0  503  501  0.00000000000E+00  0.00000000000E+00  0.40237924766E+02  0.40237924766E+02  0.00000000000E+00 0.  1.
         21   -1    0    0  506  502 -0.00000000000E+00 -0.00000000000E+00 -0.10655556222E+04  0.10655556222E+04  0.00000000000E+00 0.  1.
         21    1    1    2  503  505  0.67192487793E+02 -0.60618952491E+02 -0.20845324012E+03  0.22724929292E+03  0.00000000000E+00 0.  1.
         21    1    1    2  504  501 -0.17760826289E+03  0.71104730275E+02 -0.50051478780E+03  0.53583171847E+03  0.00000000000E+00 0.  1.
         21    1    1    2  505  502  0.70727547471E+02 -0.31647218912E+02 -0.13298424724E+03  0.15391147601E+03  0.00000000000E+00 0.  1.
         21    1    1    2  506  504  0.39688227627E+02  0.21161441128E+02 -0.18336542228E+03  0.18880105956E+03  0.00000000000E+00 0.  1.
<scales pt_clust_3="31.63737" pt_clust_4="175.41266" pt_clust_5="31.63737" pt_clust_6="44.97735"></scales>
<clustering>
<clus scale="   31.637">  3  5 -1 -1</clus>
<clus scale="   44.977">  2  6  1 -1</clus>
<clus scale="  175.413">  2  4  1 -1</clus>
<clus scale="  178.714">  1  3  2 -1</clus>
</clustering>
</event>
<event>
 6    0  0.1555973E+002  0.1322466E+03  0.7546771E-02  0.1224160E+00
         21   -1    0    0  505  501  0.00000000000E+00  0.00000000000E+00  0.94307464563E+03  0.94307464563E+03  0.00000000000E+00 0. -1.
         21   -1    0    0  504  502 -0.00000000000E+00 -0.00000000000E+00 -0.51743689409E+02  0.51743689409E+02  0.00000000000E+00 0.  1.
         21    1    1    2  503  501 -0.77747637941E+02  0.51983436431E+02  0.22084608968E+03  0.23983320911E+03  0.00000000000E+00 0.  1.
         21    1    1    2  504  503  0.30213945054E+02 -0.13359802383E+03  0.86554424040E+02  0.16202772222E+03  0.00000000000E+00 0.  1.
         21    1    1    2  505  506  0.42142732182E+02  0.32121082777E+02  0.32348091894E+03  0.32779212735E+03  0.00000000000E+00 0. -1.
         21    1    1    2  506  502  0.53909607046E+01  0.49493504625E+02  0.26044952357E+03  0.26516527636E+03  0.00000000000E+00 0. -1.
<scales pt_clust_3="93.52525" pt_clust_4="125.64173" pt_clust_5="40.00491" pt_clust_6="40.00491"></scales>
<clustering>
<clus scale="   40.005">  5  6 -1 -1</clus>
<clus scale="   93.525">  1  3  2 -1</clus>
<clus scale="  125.642">  2  4  1 -1</clus>
<clus scale="   93.525">  1  3  2 -1</clus>
</clustering>
</event>
<event>
 6    0  0.1555973E+002  0.1144530E+03  0.7546771E-02  0.1252539E+00
         21   -1    0    0  504  501  0.00000000000E+00  0.00000000000E+00  0.12236188526E+03  0.12236188526E+03  0.00000000000E+00 0.  1.
         21   -1    0    0  506  502 -0.00000000000E+00 -0.00000000000E+00 -0.35467105157E+03  0.35467105157E+03  0.00000000000E+00 0.  1.
         21    1    1    2  503  505  0.42110188268E+02 -0.10545089583E+02  0.16689509836E+02  0.46508134868E+02  0.00000000000E+00 0.  1.
         21    1    1    2  504  502 -0.99021732878E+02  0.14036146024E+03 -0.21340835242E+03  0.27395212718E+03  0.00000000000E+00 0.  1.
         21    1    1    2  505  501  0.30144267877E+02 -0.53355567965E+02  0.12244528434E+02  0.62493375611E+02  0.00000000000E+00 0.  1.
         21    1    1    2  506  503  0.26767276733E+02 -0.76460802692E+02 -0.47834852163E+02  0.94079299176E+02  0.00000000000E+00 0.  1.
<scales pt_clust_3="35.10943" pt_clust_4="106.58021" pt_clust_5="35.10943" pt_clust_6="81.01075"></scales>
<clustering>
<clus scale="   35.109">  3  5 -1 -1</clus>
<clus scale="   81.011">  2  6  1 -1</clus>
<clus scale="  106.580">  2  4  1 -1</clus>
<clus scale="  114.453">  1  3  2 -1</clus>
</clustering>
</event>
<event>
 6    0  0.1555973E+002  0.9390163E+02  0.7546771E-02  0.1293669E+00
         21   -1    0    0  505  501  0.00000000000E+00  0.00000000000E+00  0.13013836656E+03  0.13013836656E+03  0.00000000000E+00 0. -1.
         21   -1    0    0  503  502 -0.00000000000E+00 -0.00000000000E+00 -0.25554810806E+03  0.25554810806E+03  0.00000000000E+00 0. -1.
         21    1    1    2  503  506  0.56756366066E+02 -0.24679821621E+02 -0.38168905207E+01  0.62007639348E+02  0.00000000000E+00 0. -1.
         21    1    1    2  504  502  0.16441935138E+02  0.26645744826E+02 -0.11772060306E+03  0.12181327240E+03  0.00000000000E+00 0. -1.
         21    1    1    2  505  504 -0.10328143396E+03 -0.64992254042E+02  0.27840993190E+02  0.12516456602E+03  0.00000000000E+00 0. -1.
         21    1    1    2  506  501  0.30083132751E+02  0.63026330837E+02 -0.31713241114E+02  0.76700996844E+02  0.00000000000E+00 0. -1.
<scales pt_clust_3="63.41585" pt_clust_4="31.31027" pt_clust_5="93.90163" pt_clust_6="14000.00000"></scales>
<clustering>
<clus scale="   31.310">  2  4  1 -1</clus>
<clus scale="   63.416">  2  3  1 -1</clus>
<clus scale="   93.902">  1  5  2 -1</clus>
<clus scale="   93.902">  1  3  2 -1</clus>
</clustering>
</event>
<event>
 6    0  0.1555973E+002  0.9858563E+02  0.7546771E-02  0.1283299E+00
         21   -1    0    0  506  501  0.00000000000E+00  0.00000000000E+00  0.13282417048E+04  0.13282417048E+04  0.00000000000E+00 0.  1.
         21   -1    0    0  505  502 -0.00000000000E+00 -0.00000000000E+00 -0.15439533999E+03  0.15439533999E+03  0.00000000000E+00 0.  1.
         21    1    1    2  503  502 -0.17440263077E+02 -0.10004971690E+03 -0.12111172595E+03  0.15805745408E+03  0.00000000000E+00 0.  1.
         21    1    1    2  504  501  0.22814977997E+02 -0.26244148186E+02  0.23029332632E+03  0.23290404609E+03  0.00000000000E+00 0. -1.
         21    1    1    2  505  504  0.72027162862E+02  0.56076592067E+02  0.82733367938E+03  0.83235419949E+03  0.00000000000E+00 0.  1.
         21    1    1    2  506  503 -0.77401877782E+02  0.70217273017E+02  0.23733108506E+03  0.25932134515E+03  0.00000000000E+00 0.  1.
<scales pt_clust_3="14000.00000" pt_clust_4="34.77468" pt_clust_5="96.35702" pt_clust_6="98.58563"></scales>
<clustering>
<clus scale="   34.775">  1  4  2 -1</clus>
<clus scale="   96.357">  1  5  2 -1</clus>
<clus scale="   98.586">  1  6  2 -1</clus>
<clus scale="   34.775">  1  3  2 -1</clus>
</clustering>
</event>
<event>
 6    0  0.1555973E+002  0.1570715E+03  0.7546771E-02  0.1192043E+00
         21   -1    0    0  504  501  0.00000000000E+00  0.00000000000E+00  0.42793570542E+03  0.42793570542E+03  0.00000000000E+00 0. -1.
         21   -1    0    0  505  502 -0.00000000000E+00 -0.00000000000E+00 -0.15955683990E+03  0.15955683990E+03  0.00000000000E+00 0.  1.
         21    1    1    2  503  501  0.79746814835E+02  0.92918745514E+02  0.15159252323E+03  0.19486852194E+03  0.00000000000E+00 0. -1.
         21    1    1    2  504  502 -0.75899829398E+02  0.18563330972E+02  0.17563790787E+03  0.19223437789E+03  0.00000000000E+00 0. -1.
         21    1    1    2  505  506 -0.43104882671E+02 -0.13243989405E+03 -0.67946409778E+02  0.15496796781E+03  0.00000000000E+00 0.  1.
         21    1    1    2  506  503  0.39257897234E+02  0.20957817563E+02  0.90948441935E+01  0.45421677679E+02  0.00000000000E+00 0.  1.
<scales pt_clust_3="41.71901" pt_clust_4="78.13694" pt_clust_5="141.00532" pt_clust_6="41.71901"></scales>
<clustering>
<clus scale="   41.719">  3  6 -1 -1</clus>
<clus scale="   78.137">  1  4  2 -1</clus>
<clus scale="  141.005">  2  5  1 -1</clus>
<clus scale="   78.137">  1  3  2 -1</clus>
</clustering>
</event>
<event>
 6    0  0.1555973E+002  0.6920845E+02  0.7546771E-02  0.1362806E+00
         21   -1    0    0  505  501  0.00000000000E+00  0.00000000000E+00  0.19259129433E+04  0.19259129433E+04  0.00000000000E+00 0. -1.
         21   -1    0    0  506  502 -0.00000000000E+00 -0.00000000000E+00 -0.13936314944E+02  0.13936314944E+02  0.00000000000E+00 0. -1.
         21    1    1    2  503  501 -0.37328148985E+02 -0.15182861524E+02  0.35634780341E+03  0.35861911130E+03  0.00000000000E+00 0. -1.
         21    1    1    2  504  503 -0.42952545053E+02 -0.70995772005E+02  0.21561501206E+03  0.23103063476E+03  0.00000000000E+00 0. -1.
         21    1    1    2  505  502  0.82486797100E+02  0.51573394561E+02  0.12493356198E+04  0.12531174636E+04  0.00000000000E+00 0. -1.
         21    1    1    2  506  504 -0.22061030615E+01  0.34605238968E+02  0.90678193097E+02  0.97082048588E+02  0.00000000000E+00 0. -1.
<scales pt_clust_3="39.28894" pt_clust_4="69.20845" pt_clust_5="14000.00000" pt_clust_6="34.67549"></scales>
<clustering>
<clus scale="   34.675">  2  6  1 -1</clus>
<clus scale="   39.289">  1  3  2 -1</clus>
<clus scale="   69.208">  2  4  1 -1</clus>
<clus scale="   39.289">  1  3  2 -1</clus>
</clustering>
</event>
<event>
 6    0  0.1555973E+002  0.8470118E+02  0.7546771E-02  0.1316216E+00
         21   -1    0    0  506  501  0.00000000000E+00  0.00000000000E+00  0.65493887336E+03  0.65493887336E+03  0.00000000000E+00 0.  1.
         21   -1    0    0  503  502 -0.00000000000E+00 -0.00000000000E+00 -0.18303659742E+03  0.18303659742E+03  0.00000000000E+00 0. -1.
         21    1    1    2  503  504 -0.11785655245E+03  0.55412113049E+01  0.29482948920E+03  0.31756148961E+03  0.00000000000E+00 0.  1.
         21    1    1    2  504  501  0.16548558814E+02  0.32949620313E+02  0.44697456859E+02  0.57943031741E+02  0.00000000000E+00 0.  1.
         21    1    1    2  505  502  0.43910016748E+02 -0.84947217432E+01 -0.15838854330E+03  0.16458183532E+03  0.00000000000E+00 0. -1.
         21    1    1    2  506  505  0.57397976889E+02 -0.29996109875E+02  0.29076387318E+03  0.29788911411E+03  0.00000000000E+00 0. -1.
<scales pt_clust_3="84.70118" pt_clust_4="36.87184" pt_clust_5="44.77577" pt_clust_6="14000.00000"></scales>
<clustering>
<clus scale="   36.872">  1  4  2 -1</clus>
<clus scale="   44.776">  2  5  1 -1</clus>
<clus scale="   84.701">  2  3  1 -1</clus>
<clus scale="   36.872">  1  3  2 -1</clus>
</clustering>
</event>
<event>
 6    0  0.1555973E+002  0.7055299E+02  0.7546771E-02  0.1358223E+00
         21   -1    0    0  503  501  0.00000000000E+00  0.00000000000E+00  0.10492061832E+03  0.10492061832E+03  0.00000000000E+00 0.  1.
         21   -1    0    0  506  502 -0.00000000000E+00 -0.00000000000E+00 -0.73034523961E+03  0.73034523961E+03  0.00000000000E+00 0. -1.
         21    1    1    2  503  505 -0.36114857046E+02  0.13042903680E+02  0.19605852419E+02  0.43113683268E+02  0.00000000000E+00 0.  1.
         21    1    1    2  504  502 -0.16704945136E+02 -0.67808308786E+02 -0.64523569169E+03  0.64900394434E+03  0.00000000000E+00 0. -1.
         21    1    1    2  505  504  0.78882784370E+01  0.87205788025E+02 -0.32490478506E+01  0.87622090329E+02  0.00000000000E+00 0.  1.
         21    1    1    2  506  501  0.44931523745E+02 -0.32440382919E+02  0.34542658359E+01  0.55526139992E+02  0.00000000000E+00 0.  1.
<scales pt_clust_3="38.39792" pt_clust_4="70.55299" pt_clust_5="14000.00000" pt_clust_6="40.83954"></scales>
<clustering>
<clus scale="   38.398">  1  3  2 -1</clus>
<clus scale="   40.840">  1  6  2 -1</clus>
<clus scale="   70.553">  2  4  1 -1</clus>
<clus scale="   38.398">  1  3  2 -1</clus>
</clustering>
</event>
<event>
 6    0  0.1555973E+002  0.1162554E+03  0.7546771E-02  0.1249406E+00
         21   -1    0    0  504  501  0.00000000000E+00  0.00000000000E+00  0.26068557432E+03  0.26068557432E+03  0.00000000000E+00 0.  1.
         21   -1    0    0  503  502 -0.00000000000E+00 -0.00000000000E+00 -0.14747114310E+04  0.14747114310E+04  0.00000000000E+00 0. -1.
         21    1    1    2  503  505 -0.38329593928E+02  0.10092999309E+03 -0.14162079677E+04  0.14203172283E+04  0.00000000000E+00 0. -1.
         21    1    1    2  504  502 -0.45600361914E+02 -0.32647726143E+02  0.18938612075E+03  0.19751549246E+03  0.00000000000E+00 0.  1.
         21    1    1    2  505  506  0.51103005637E+02 -0.21095892097E+02 -0.91449012425E+01  0.56037336368E+02  0.00000000000E+00 0.  1.
         21    1    1    2  506  501  0.32826950205E+02 -0.47186374851E+02  0.21940891513E+02  0.61526948174E+02  0.00000000000E+00 0.  1.
<scales pt_clust_3="107.53786" pt_clust_4="56.08268" pt_clust_5="43.31738" pt_clust_6="43.31738"></scales>
<clustering>
<clus scale="   43.317">  5  6 -1 -1</clus>
<clus scale="   56.083">  1  4  2 -1</clus>
<clus scale="  107.538">  2  3  1 -1</clus>
<clus scale="   56.083">  1  3  2 -1</clus>
</clustering>
</event>
<event>
 6    0  0.1555973E+002  0.1386426E+03  0.7546771E-02  0.1215167E+00
         21   -1    0    0  505  501  0.00000000000E+00  0.00000000000E+00  0.22950474721E+03  0.22950474721E+03  0.00000000000E+00 0. -1.
         21   -1    0    0  504  502 -0.00000000000E+00 -0.00000000000E+00 -0.88001356598E+03  0.88001356598E+03  0.00000000000E+00 0. -1.
         21    1    1    2  503  501  0.28431583298E+02  0.11408854107E+03 -0.92805656722E+02  0.14979132168E+03  0.00000000000E+00 0. -1.
         21    1    1    2  504  506  0.29876487875E+02 -0.15497227252E+02 -0.65122810449E+03  0.65209724172E+03  0.00000000000E+00 0. -1.
         21    1    1    2  505  502 -0.94255531163E+02 -0.11105569652E+03  0.16899774633E+03  0.22310919109E+03  0.00000000000E+00 0. -1.
         21    1    1    2  506  503  0.35947459989E+02  0.12464382704E+02 -0.75472803894E+02  0.84520558703E+02  0.00000000000E+00 0. -1.
<scales pt_clust_3="138.64257" pt_clust_4="33.65663" pt_clust_5="14000.00000" pt_clust_6="46.94407"></scales>
<clustering>
<clus scale="   33.657">  2  4  1 -1</clus>
<clus scale="   46.944">  2  6  1 -1</clus>
<clus scale="  138.643">  2  3  1 -1</clus>
<clus scale="  138.643">  1  3  2 -1</clus>
</clustering>
</event>
<event>
 6    0  0.1555973E+002  0.1096964E+03  0.7546771E-02  0.1261133E+00
         21   -1    0    0  504  501  0.00000000000E+00  0.00000000000E+00  0.29242503406E+04  0.29242503406E+04  0.00000000000E+00 0. -1.
         21   -1    0    0  505  502 -0.00000000000E+00 -0.00000000000E+00 -0.47699964131E+02  0.47699964131E+02  0.00000000000E+00 0. -1.
         21    1    1    2  503  506 -0.38297567870E+02  0.26221142938E+02  0.37178366865E+03  0.37466965225E+03  0.00000000000E+00 0. -1.
         21    1    1    2  504  503 -0.11613342455E+02  0.34882319557E+02  0.11150631512E+04  0.11156690715E+04  0.00000000000E+00 0. -1.
         21    1    1    2  505  501 -0.61662192475E+02 -0.46889999271E+02  0.13640505369E+04  0.13662484273E+04  0.00000000000E+00 0. -1.
         21    1    1    2  506  502  0.11157310280E+03 -0.14213463224E+02  0.25653019776E+02  0.11536315369E+03  0.00000000000E+00 0. -1.
<scales pt_clust_3="52.65710" pt_clust_4="36.76474" pt_clust_5="14000.00000" pt_clust_6="109.69642"></scales>
<clustering>
<clus scale="   36.765">  1  4  2 -1</clus>
<clus scale="   52.657">  1  3  2 -1</clus>
<clus scale="  109.696">  2  6  1 -1</clus>
<clus scale="   36.765">  1  3  2 -1</clus>
</clustering>
</event>
<event>
 6    0  0.1555973E+002  0.7903927E+02  0.7546771E-02  0.1331800E+00
         21   -1    0    0  505  501  0.00000000000E+00  0.00000000000E+00  0.14557980808E+03  0.14557980808E+03  0.00000000000E+00 0.  1.
         21   -1    0    0  504  502 -0.00000000000E+00 -0.00000000000E+00 -0.63286250261E+03  0.63286250261E+03  0.00000000000E+00 0.  1.
         21    1    1    2  503  502 -0.82645374237E+02 -0.96182093960E+02  0.17505686330E+02  0.12801446065E+03  0.00000000000E+00 0.  1.
         21    1    1    2  504  506  0.76087285312E+01  0.40639696951E+02 -0.53329332180E+03  0.53489367616E+03  0.00000000000E+00 0.  1.
         21    1    1    2  505  503  0.22735494375E+02  0.38480394825E+02  0.39247648420E+02  0.59481269294E+02  0.00000000000E+00 0.  1.
         21    1    1    2  506  501  0.52301151331E+02  0.17062002184E+02 -0.10742707480E+02  0.56052904591E+02  0.00000000000E+00 0.  1.
<scales pt_clust_3="79.03927" pt_clust_4="41.34583" pt_clust_5="48.69682" pt_clust_6="14000.00000"></scales>
<clustering>
<clus scale="   41.346">  2  4  1 -1</clus>
<clus scale="   48.697">  1  5  2 -1</clus>
<clus scale="   79.039">  1  3  2 -1</clus>
<clus scale="   48.697">  1  3  2 -1</clus>
</clustering>
</event>
<event>
 6    0  0.1555973E+002  0.1417840E+03  0.7546771E-02  0.1210948E+00
         21   -1    0    0  504  501  0.00000000000E+00  0.00000000000E+00  0.32686405365E+03  0.32686405365E+03  0.00000000000E+00 0.  1.
         21   -1    0    0  505  502 -0.00000000000E+00 -0.00000000000E+00 -0.43621354845E+03  0.43621354845E+03  0.00000000000E+00 0. -1.
         21    1    1    2  503  506 -0.13199318583E+03  0.15102512087E+02  0.92585712333E+02  0.16193332303E+03  0.00000000000E+00 0.  1.
         21    1    1    2  504  502  0.89448569766E+02 -0.36592438025E+02  0.40672650693E+01  0.96729498081E+02  0.00000000000E+00 0.  1.
         21    1    1    2  505  503  0.93184147070E+02 -0.34339735752E+02 -0.33806842808E+03  0.35235318188E+03  0.00000000000E+00 0. -1.
         21    1    1    2  506  501 -0.50639531001E+02  0.55829661690E+02  0.13206595587E+03  0.15206159911E+03  0.00000000000E+00 0.  1.
<scales pt_clust_3="74.33050" pt_clust_4="96.64395" pt_clust_5="101.80538" pt_clust_6="74.33050"></scales>
<clustering>
<clus scale="   74.331">  3  6 -1 -1</clus>
<clus scale="   96.644">  1  4  2 -1</clus>
<clus scale="  101.805">  2  5  1 -1</clus>
<clus scale="   96.644">  1  3  2 -1</clus>
</clustering>
</event>
<event>
 6    0  0.1555973E+002  0.1585449E+03  0.7546771E-02  0.1190349E+00
         21   -1    0    0  505  501  0.00000000000E+00  0.00000000000E+00  0.48866430108E+03  0.48866430108E+03  0.00000000000E+00 0. -1.
         21   -1    0    0  504  502 -0.00000000000E+00 -0.00000000000E+00 -0.58189987492E+03  0.58189987492E+03  0.00000000000E+00 0.  1.
         21    1    1    2  503  501 -0.13843651531E+03  0.72589458790E+02  0.40292459969E+03  0.43218298363E+03  0.00000000000E+00 0. -1.
         21    1    1    2  504  503  0.37523864073E+02  0.71684027202E+01 -0.49949591049E+03  0.50095467956E+03  0.00000000000E+00 0.  1.
         21    1    1    2  505  506  0.41332355082E+02 -0.15103913818E+02  0.19329146722E+02  0.48063579791E+02  0.00000000000E+00 0.  1.
         21    1    1    2  506  502  0.59580296158E+02 -0.64653947692E+02 -0.15993409767E+02  0.89362933023E+02  0.00000000000E+00 0.  1.
<scales pt_clust_3="151.01732" pt_clust_4="38.20244" pt_clust_5="34.15153" pt_clust_6="34.15153"></scales>
<clustering>
<clus scale="   34.152">  5  6 -1 -1</clus>
<clus scale="   38.202">  2  4  1 -1</clus>
<clus scale="  151.017">  1  3  2 -1</clus>
<clus scale="  151.017">  1  3  2 -1</clus>
</clustering>
</event>
<event>
 6    0  0.1555973E+002  0.1589746E+03  0.7546771E-02  0.1189859E+00
         21   -1    0    0  506  501  0.00000000000E+00  0.00000000000E+00  0.14547835075E+04  0.14547835075E+04  0.00000000000E+00 0.  1.
         21   -1    0    0  505  502 -0.00000000000E+00 -0.00000000000E+00 -0.38561150209E+03  0.38561150209E+03  0.00000000000E+00 0. -1.
         21    1    1    2  503  501  0.66029398063E+02 -0.55725345107E+02  0.97711609784E+02  0.13043294899E+03  0.00000000000E+00 0.  1.
         21    1    1    2  504  502  0.56813167678E+02  0.18526349558E+02 -0.34723075598E+03  0.35233529421E+03  0.00000000000E+00 0. -1.
         21    1    1    2  505  503  0.71174561973E+01 -0.44401594183E+02  0.18850998311E+02  0.48759818355E+02  0.00000000000E+00 0. -1.
         21    1    1    2  506  504 -0.12996002194E+03  0.81600589732E+02  0.12998401533E+04  0.13088669481E+04  0.00000000000E+00 0.  1.
<scales pt_clust_3="40.47300" pt_clust_4="59.75752" pt_clust_5="40.47300" pt_clust_6="148.74674"></scales>
<clustering>
<clus scale="   40.473">  3  5 -1 -1</clus>
<clus scale="   59.758">  2  4  1 -1</clus>
<clus scale="  148.747">  1  6  2 -1</clus>
<clus scale="  148.747">  1  3  2 -1</clus>
</clustering>
</event>
<event>
 6    0  0.1555973E+002  0.1155749E+03  0.7546771E-02  0.1250581E+00
         21   -1    0    0  502  501  0.00000000000E+00  0.00000000000E+00  0.22357338461E+02  0.22357338461E+02  0.00000000000E+00 0. -1.
         21   -1    0    0  505  502 -0.00000000000E+00 -0.00000000000E+00 -0.18993253768E+04  0.18993253768E+04  0.00000000000E+00 0.  1.
         21    1    1    2  503  506  0.77902509616E+01 -0.42203322752E+02 -0.38011654266E+02  0.57329698424E+02  0.00000000000E+00 0. -1.
         21    1    1    2  504  503  0.61906378542E+02 -0.65096483985E+02 -0.38177510599E+03  0.39220171275E+03  0.00000000000E+00 0.  1.
         21    1    1    2  505  504 -0.40671989344E+02  0.13024418938E+03 -0.13781526314E+04  0.13848907664E+04  0.00000000000E+00 0.  1.
         21    1    1    2  506  501 -0.29024640159E+02 -0.22944382639E+02 -0.79028646699E+02  0.87260537645E+02  0.00000000000E+00 0. -1.
<scales pt_clust_3="54.87845" pt_clust_4="14000.00000" pt_clust_5="115.57494" pt_clust_6="36.99830"></scales>
<clustering>
<clus scale="   36.998">  1  6  2 -1</clus>
<clus scale="   54.878">  1  3  2 -1</clus>
<clus scale="  115.575">  2  5  1 -1</clus>
<clus scale="   36.998">  1  3  2 -1</clus>
</clustering>
</event>
<event>
 6    0  0.1555973E+002  0.2122264E+03  0.7546771E-02  0.1139815E+00
         21   -1    0    0  503  501  0.00000000000E+00  0.00000000000E+00  0.47582377228E+03  0.47582377228E+03  0.00000000000E+00 0. -1.
         21   -1    0    0  501  502 -0.00000000000E+00 -0.00000000000E+00 -0.20385955242E+03  0.20385955242E+03  0.00000000000E+00 0. -1.
         21    1    1    2  503  505  0.35246797093E+02 -0.33160946586E+02  0.98274802980E+02  0.10954415541E+03  0.00000000000E+00 0. -1.
         21    1    1    2  504  502 -0.67960767717E+02  0.23053053354E+02 -0.73241819362E+02  0.10254010591E+03  0.00000000000E+00 0. -1.
         21    1    1    2  505  506  0.16349424576E+03 -0.29413473514E+01  0.28689844080E+03  0.33022679367E+03  0.00000000000E+00 0. -1.
         21    1    1    2  506  504 -0.13078027514E+03  0.13049240584E+02 -0.39967204556E+02  0.13737226971E+03  0.00000000000E+00 0. -1.
<scales pt_clust_3="35.41809" pt_clust_4="46.38433" pt_clust_5="35.41809" pt_clust_6="211.52226"></scales>
<clustering>
<clus scale="   35.418">  3  5 -1 -1</clus>
<clus scale="   46.384">  4  6 -1 -1</clus>
<clus scale="  211.522">  2  4  1 -1</clus>
<clus scale="  212.226">  1  3  2 -1</clus>
</clustering>
</event>
<event>
 6    0  0.1555973E+002  0.2298034E+03  0.7546771E-02  0.1126778E+00
         21   -1    0    0  506  501  0.00000000000E+00  0.00000000000E+00  0.39441084325E+03  0.39441084325E+03  0.00000000000E+00 0.  1.
         21   -1    0    0  505  502 -0.00000000000E+00 -0.00000000000E+00 -0.40999276484E+03  0.40999276484E+03  0.00000000000E+00 0.  1.
         21    1    1    2  503  504 -0.46337745167E+02  0.79379863169E+02  0.33839068395E+02  0.97946066046E+02  0.00000000000E+00 0. -1.
         21    1    1    2  504  502  0.64711377137E+02  0.59185189751E+02 -0.25012550485E+03  0.26505323464E+03  0.00000000000E+00 0.  1.
         21    1    1    2  505  501  0.21207643886E+02 -0.24482908152E+03  0.46681150724E+02  0.25014030693E+03  0.00000000000E+00 0.  1.
         21    1    1    2  506  503 -0.39581275856E+02  0.10626402860E+03  0.15402336414E+03  0.19126400047E+03  0.00000000000E+00 0.  1.
<scales pt_clust_3="72.61032" pt_clust_4="87.69521" pt_clust_5="215.18636" pt_clust_6="72.61032"></scales>
<clustering>
<clus scale="   72.610">  3  6 -1 -1</clus>
<clus scale="   87.695">  2  4  1 -1</clus>
<clus scale="  215.186">  2  5  1 -1</clus>
<clus scale="  229.803">  1  3  2 -1</clus>
</clustering>
</event>
<event>
 6    0  0.1555973E+002  0.1907140E+03  0.7546771E-02  0.1157819E+00
         21   -1    0    0  504  501  0.00000000000E+00  0.00000000000E+00  0.68160927817E+03  0.68160927817E+03  0.00000000000E+00 0. -1.
         21   -1    0    0  506  502 -0.00000000000E+00 -0.00000000000E+00 -0.17739862470E+03  0.17739862470E+03  0.00000000000E+00 0. -1.
         21    1    1    2  503  505 -0.15825891136E+03 -0.12866227586E+03  0.33095289036E+03  0.38875400949E+03  0.00000000000E+00 0. -1.
         21    1    1    2  504  503  0.32474734303E+02 -0.29333876042E+02  0.11717499241E+03  0.12508022825E+03  0.00000000000E+00 0.  1.
         21    1    1    2  505  502 -0.52147329787E+01  0.41400760995E+02 -0.10128708911E+03  0.10954583914E+03  0.00000000000E+00 0. -1.
         21    1    1    2  506  501  0.13099891004E+03  0.11659539091E+03  0.15736985980E+03  0.23562782600E+03  0.00000000000E+00 0. -1.
<scales pt_clust_3="190.71402" pt_clust_4="42.05192" pt_clust_5="41.72789" pt_clust_6="14000.00000"></scales>
<clustering>
<clus scale="   41.728">  2  5  1 -1</clus>
<clus scale="   42.052">  1  4  2 -1</clus>
<clus scale="  190.714">  1  3  2 -1</clus>
<clus scale="   42.052">  1  3  2 -1</clus>
</clustering>
</event>
<event>
 6    0  0.1555973E+002  0.8307505E+02  0.7546771E-02  0.1320545E+00
         21   -1    0    0  506  501  0.00000000000E+00  0.00000000000E+00  0.21302346751E+04  0.21302346751E+04  0.00000000000E+00 0. -1.
         21   -1    0    0  505  502 -0.00000000000E+00 -0.00000000000E+00 -0.48710577360E+02  0.48710577360E+02  0.00000000000E+00 0. -1.
         21    1    1    2  503  501  0.29969283030E+02  0.56322022934E+02  0.59409754797E+03  0.59751336780E+03  0.00000000000E+00 0. -1.
         21    1    1    2  504  502 -0.78113935504E+02 -0.28749680351E+02 -0.20207046002E+01  0.83261121103E+02  0.00000000000E+00 0. -1.
         21    1    1    2  505  503  0.90408252704E+02 -0.21787066407E+02  0.13257182544E+04  0.13289760037E+04  0.00000000000E+00 0. -1.
         21    1    1    2  506  504 -0.42263600230E+02 -0.57852761760E+01  0.16372899991E+03  0.16919475978E+03  0.00000000000E+00 0.  1.
<scales pt_clust_3="57.19736" pt_clust_4="14000.00000" pt_clust_5="83.07505" pt_clust_6="42.65772"></scales>
<clustering>
<clus scale="   42.658">  1  6  2 -1</clus>
<clus scale="   57.197">  1  3  2 -1</clus>
<clus scale="   83.075">  1  5  2 -1</clus>
<clus scale="   42.658">  1  3  2 -1</clus>
</clustering>
</event>
<event>
 6    0  0.1555973E+002  0.1257014E+03  0.7546771E-02  0.1233977E+00
         21   -1    0    0  503  501  0.00000000000E+00  0.00000000000E+00  0.99000028517E+03  0.99000028517E+03  0.00000000000E+00 0.  1.
         21   -1    0    0  506  502 -0.00000000000E+00 -0.00000000000E+00 -0.14922513353E+03  0.14922513353E+03  0.00000000000E+00 0.  1.
         21    1    1    2  503  502 -0.13925940298E+02 -0.30221078946E+02  0.14879832804E+03  0.15247356444E+03  0.00000000000E+00 0.  1.
         21    1    1    2  504  505  0.73263974660E+02 -0.38613167500E+01 -0.16365728222E+02  0.75168855321E+02  0.00000000000E+00 0.  1.
         21    1    1    2  505  501 -0.11732854082E+03 -0.59685582825E+01  0.79287156308E+03  0.80152786958E+03  0.00000000000E+00 0.  1.
         21    1    1    2  506  504  0.57990506454E+02  0.40050953978E+02 -0.84529011253E+02  0.11005512935E+03  0.00000000000E+00 0.  1.
<scales pt_clust_3="33.27530" pt_clust_4="125.70137" pt_clust_5="14000.00000" pt_clust_6="70.04188"></scales>
<clustering>
<clus scale="   33.275">  1  3  2 -1</clus>
<clus scale="   70.042">  2  6  1 -1</clus>
<clus scale="  125.701">  2  4  1 -1</clus>
<clus scale="   33.275">  1  3  2 -1</clus>
</clustering>
</event>
<event>
 6    0  0.1555973E+002  0.7673382E+02  0.7546771E-02  0.1338585E+00
         21   -1    0    0  504  501  0.00000000000E+00  0.00000000000E+00  0.27346922046E+04  0.27346922046E+04  0.00000000000E+00 0. -1.
         21   -1    0    0  506  502 -0.00000000000E+00 -0.00000000000E+00 -0.35887335756E+02  0.35887335756E+02  0.00000000000E+00 0. -1.
         21    1    1    2  503  502 -0.21682172393E+02  0.67000686748E+02  0.66469331195E+03  0.66841335084E+03  0.00000000000E+00 0. -1.
         21    1    1    2  504  503  0.54067985244E+02  0.53163167813E+02  0.16666081935E+04  0.16683322631E+04  0.00000000000E+00 0. -1.
         21    1    1    2  505  501 -0.24529880717E+02 -0.90079695685E+02  0.38635339738E+03  0.39747328752E+03  0.00000000000E+00 0. -1.
         21    1    1    2  506  505 -0.78559321346E+01 -0.30084158876E+02 -0.18850033946E+02  0.36360638949E+02  0.00000000000E+00 0. -1.
<scales pt_clust_3="64.64599" pt_clust_4="76.73382" pt_clust_5="14000.00000" pt_clust_6="31.09296"></scales>
<clustering>
<clus scale="   31.093">  2  6  1 -1</clus>
<clus scale="   64.646">  2  3  1 -1</clus>
<clus scale="   76.734">  1  4  2 -1</clus>
<clus scale="   76.734">  1  3  2 -1</clus>
</clustering>
</event>
<event>
 6    0  0.1555973E+002  0.1599570E+03  0.7546771E-02  0.1188745E+00
         21   -1    0    0  506  501  0.00000000000E+00  0.00000000000E+00  0.20533817761E+03  0.20533817761E+03  0.00000000000E+00 0.  1.
         21   -1    0    0  504  502 -0.00000000000E+00 -0.00000000000E+00 -0.34410970494E+03  0.34410970494E+03  0.00000000000E+00 0.  1.
         21    1    1    2  503  501 -0.52746925171E+02  0.44028274056E+02  0.93165636955E+02  0.11576080054E+03  0.00000000000E+00 0.  1.
         21    1    1    2  504  503 -0.31043576527E+02  0.11774231540E+02  0.88273418032E+01  0.34354885173E+02  0.00000000000E+00 0.  1.
         21    1    1    2  505  502  0.16750065747E+03  0.32478503852E+00 -0.24690515454E+03  0.29836006951E+03  0.00000000000E+00 0.  1.
         21    1    1    2  506  505 -0.83710155776E+02 -0.56127290634E+02  0.61406484457E+01  0.10097212733E+03  0.00000000000E+00 0.  1.
<scales pt_clust_3="31.06755" pt_clust_4="31.06755" pt_clust_5="153.58667" pt_clust_6="100.78523"></scales>
<clustering>
<clus scale="   31.068">  3  4 -1 -1</clus>
<clus scale="  100.785">  1  6  2 -1</clus>
<clus scale="  153.587">  2  5  1 -1</clus>
<clus scale="  100.785">  1  3  2 -1</clus>
</clustering>
</event>
<event>
 6    0  0.1555973E+002  0.1867582E+03  0.7546771E-02  0.1161418E+00
         21   -1    0    0  506  501  0.00000000000E+00  0.00000000000E+00  0.20354931016E+03  0.20354931016E+03  0.00000000000E+00 0. -1.
         21   -1    0    0  503  502 -0.00000000000E+00 -0.00000000000E+00 -0.25124341800E+03  0.25124341800E+03  0.00000000000E+00 0.  1.
         21    1    1    2  503  504  0.10882264130E+03 -0.51226883259E+01  0.51620193876E+02  0.12055394481E+03  0.00000000000E+00 0. -1.
         21    1    1    2  504  501  0.48204877938E+02  0.58933044001E+02  0.60758012087E+02  0.97408161696E+02  0.00000000000E+00 0. -1.
         21    1    1    2  505  502 -0.74421673368E+02 -0.29283969403E+02 -0.11359854790E+03  0.13892719826E+03  0.00000000000E+00 0.  1.
         21    1    1    2  506  505 -0.82605845866E+02 -0.24526386272E+02 -0.46473765893E+02  0.97903423388E+02  0.00000000000E+00 0.  1.
<scales pt_clust_3="71.55067" pt_clust_4="71.55067" pt_clust_5="51.99086" pt_clust_6="174.54397"></scales>
<clustering>
<clus scale="   51.991">  5  6 -1 -1</clus>
<clus scale="   71.551">  3  4 -1 -1</clus>
<clus scale="  174.544">  2  5  1 -1</clus>
<clus scale="  186.758">  1  3  2 -1</clus>
</clustering>
</event>
<event>
 6    0  0.1555973E+002  0.1412834E+03  0.7546771E-02  0.1211612E+00
         21   -1    0    0  506  501  0.00000000000E+00  0.00000000000E+00  0.11908094216E+04  0.11908094216E+04  0.00000000000E+00 0. -1.
         21   -1    0    0  504  502 -0.00000000000E+00 -0.00000000000E+00 -0.16443231055E+03  0.16443231055E+03  0.00000000000E+00 0. -1.
         21    1    1    2  503  501  0.67612015955E+02  0.13964126661E+02  0.84357782703E+03  0.84639821112E+03  0.00000000000E+00 0. -1.
         21    1    1    2  504  505 -0.13169297737E+03  0.32350028368E+02 -0.12268152220E+03  0.18286694757E+03  0.00000000000E+00 0. -1.
         21    1    1    2  505  503  0.33050281031E+02  0.12628179394E+02  0.18457649222E+03  0.18793688693E+03  0.00000000000E+00 0.  1.
         21    1    1    2  506  502  0.31030680381E+02 -0.58942334423E+02  0.12090431399E+03  0.13803968652E+03  0.00000000000E+00 0.  1.
<scales pt_clust_3="31.26768" pt_clust_4="134.36245" pt_clust_5="31.26768" pt_clust_6="66.61157"></scales>
<clustering>
<clus scale="   31.268">  3  5 -1 -1</clus>
<clus scale="   66.612">  1  6  2 -1</clus>
<clus scale="  134.362">  2  4  1 -1</clus>
<clus scale="   66.612">  1  3  2 -1</clus>
</clustering>
</event>
<event>
 6    0  0.1555973E+002  0.8703974E+02  0.7546771E-02  0.1310183E+00
         21   -1    0    0  503  501  0.00000000000E+00  0.00000000000E+00  0.23141380060E+03  0.23141380060E+03  0.00000000000E+00 0.  1.
         21   -1    0    0  504  502 -0.00000000000E+00 -0.00000000000E+00 -0.84947392987E+03  0.84947392987E+03  0.00000000000E+00 0. -1.
         21    1    1    2  503  505 -0.93402685564E+02  0.27557904883E+02  0.16004434412E+03  0.18734377993E+03  0.00000000000E+00 0.  1.
         21    1    1    2  504  506  0.93086873648E+01 -0.88531944081E+02 -0.75593478957E+03  0.76115830342E+03  0.00000000000E+00 0. -1.
         21    1    1    2  505  502  0.29397539297E+02  0.59637164221E+02  0.12443276227E+02  0.67643490420E+02  0.00000000000E+00 0.  1.
         21    1    1    2  506  501  0.54696458902E+02  0.13368749769E+01 -0.34612960046E+02  0.64742156701E+02  0.00000000000E+00 0.  1.
<scales pt_clust_3="57.17532" pt_clust_4="87.03974" pt_clust_5="14000.00000" pt_clust_6="54.71279"></scales>
<clustering>
<clus scale="   54.713">  1  6  2 -1</clus>
<clus scale="   57.175">  1  3  2 -1</clus>
<clus scale="   87.040">  2  4  1 -1</clus>
<clus scale="   54.713">  1  3  2 -1</clus>
</clustering>
</event>
<event>
 6    0  0.1555973E+002  0.1348463E+03  0.7546771E-02  0.1220437E+00
         21   -1    0    0  504  501  0.00000000000E+00  0.00000000000E+00  0.13114328446E+03  0.13114328446E+03  0.00000000000E+00 0. -1.
         21   -1    0    0  503  502 -0.00000000000E+00 -0.00000000000E+00 -0.13306550034E+04  0.13306550034E+04  0.00000000000E+00 0. -1.
         21    1    1    2  503  505 -0.78556455192E+00  0.89583028264E+02 -0.90755111129E+03  0.91196203631E+03  0.00000000000E+00 0. -1.
         21    1    1    2  504  506  0.12007637627E+03  0.97710895246E+01  0.50792573281E+02  0.13074286148E+03  0.00000000000E+00 0. -1.
         21    1    1    2  505  501 -0.63483918133E+01  0.50804288261E+02 -0.52496747563E+02  0.73329982197E+02  0.00000000000E+00 0.  1.
         21    1    1    2  506  502 -0.11294241990E+03 -0.15015840605E+03 -0.29025643340E+03  0.34576340791E+03  0.00000000000E+00 0. -1.
<scales pt_clust_3="90.51562" pt_clust_4="134.84627" pt_clust_5="51.19939" pt_clust_6="14000.00000"></scales>
<clustering>
<clus scale="   51.199">  1  5  2 -1</clus>
<clus scale="   90.516">  2  3  1 -1</clus>
<clus scale="  134.846">  1  4  2 -1</clus>
<clus scale="   51.199">  1  3  2 -1</clus>
</clustering>
</event>
<event>
 6    0  0.1555973E+002  0.1536899E+03  0.7546771E-02  0.1196011E+00
         21   -1    0    0  503  501  0.00000000000E+00  0.00000000000E+00  0.64235763185E+02  0.64235763185E+02  0.00000000000E+00 0. -1.
         21   -1    0    0  501  502 -0.00000000000E+00 -0.00000000000E+00 -0.68512568806E+03  0.68512568806E+03  0.00000000000E+00 0. -1.
         21    1    1    2  503  505 -0.36835310581E+02 -0.85712106912E+02 -0.61979025118E+02  0.11200359339E+03  0.00000000000E+00 0. -1.
         21    1    1    2  504  506  0.64959058818E+02  0.12261041542E+03 -0.21062932163E+03  0.25222550311E+03  0.00000000000E+00 0. -1.
         21    1    1    2  505  504 -0.57868255791E+02 -0.28737537779E+02 -0.41470658546E+02  0.76774973957E+02  0.00000000000E+00 0. -1.
         21    1    1    2  506  502  0.29744507554E+02 -0.81607707323E+01 -0.30681091959E+03  0.30835738079E+03  0.00000000000E+00 0. -1.
<scales pt_clust_3="43.50330" pt_clust_4="144.05744" pt_clust_5="43.50330" pt_clust_6="30.84370"></scales>
<clustering>
<clus scale="   30.844">  2  6  1 -1</clus>
<clus scale="   43.503">  3  5 -1 -1</clus>
<clus scale="  144.057">  2  4  1 -1</clus>
<clus scale="  153.690">  1  3  2 -1</clus>
</clustering>
</event>
<event>
 6    0  0.1555973E+002  0.1310070E+03  0.7546771E-02  0.1225969E+00
         21   -1    0    0  502  501  0.00000000000E+00  0.00000000000E+00  0.30343930462E+03  0.30343930462E+03  0.00000000000E+00 0. -1.
         21   -1    0    0  503  502 -0.00000000000E+00 -0.00000000000E+00 -0.88631335124E+03  0.88631335124E+03  0.00000000000E+00 0. -1.
         21    1    1    2  503  505 -0.76712874328E+02  0.20201323482E+02 -0.82122052952E+03  0.82504309988E+03  0.00000000000E+00 0. -1.
         21    1    1    2  504  501  0.32735550870E+02  0.16871214454E+02  0.76003640835E+02  0.84455950578E+02  0.00000000000E+00 0. -1.
         21    1    1    2  505  506  0.12566035354E+02 -0.12653731683E+03  0.59568160608E+02  0.14042066640E+03  0.00000000000E+00 0. -1.
         21    1    1    2  506  504  0.31411288104E+02  0.89464778893E+02  0.10277468146E+03  0.13983293901E+03  0.00000000000E+00 0. -1.
<scales pt_clust_3="79.32817" pt_clust_4="33.68624" pt_clust_5="119.33642" pt_clust_6="33.68624"></scales>
<clustering>
<clus scale="   33.686">  4  6 -1 -1</clus>
<clus scale="   79.328">  2  3  1 -1</clus>
<clus scale="  119.336">  2  5  1 -1</clus>
<clus scale="  131.007">  1  3  2 -1</clus>
</clustering>
</event>
<event>
 6    0  0.1555973E+002  0.1343074E+03  0.7546771E-02  0.1221201E+00
         21   -1    0    0  503  501  0.00000000000E+00  0.00000000000E+00  0.19274650032E+03  0.19274650032E+03  0.00000000000E+00 0. -1.
         21   -1    0    0  501  502 -0.00000000000E+00 -0.00000000000E+00 -0.18798996541E+04  0.18798996541E+04  0.00000000000E+00 0. -1.
         21    1    1    2  503  505 -0.47115541542E+02  0.13250339191E+03  0.15350847586E+03  0.20818711604E+03  0.00000000000E+00 0. -1.
         21    1    1    2  504  506  0.39214190491E+02 -0.17342247962E+02 -0.81045232546E+02  0.91688799854E+02  0.00000000000E+00 0.  1.
         21    1    1    2  505  504  0.13524460727E+02 -0.37689989151E+02 -0.64794835549E+02  0.76169659537E+02  0.00000000000E+00 0. -1.
         21    1    1    2  506  502 -0.56231096755E+01 -0.77471154803E+02 -0.16948215616E+04  0.16966005790E+04  0.00000000000E+00 0. -1.
<scales pt_clust_3="130.15856" pt_clust_4="32.01069" pt_clust_5="32.01069" pt_clust_6="77.67496"></scales>
<clustering>
<clus scale="   32.011">  4  5 -1 -1</clus>
<clus scale="   77.675">  2  6  1 -1</clus>
<clus scale="  130.159">  1  3  2 -1</clus>
<clus scale="  130.159">  1  3  2 -1</clus>
</clustering>
</event>
<event>
 6    0  0.1555973E+002  0.1344759E+03  0.7546771E-02  0.1220961E+00
         21   -1    0    0  504  501  0.00000000000E+00  0.00000000000E+00  0.17390797354E+02  0.17390797354E+02  0.00000000000E+00 0. -1.
         21   -1    0    0  506  502 -0.00000000000E+00 -0.00000000000E+00 -0.32697823628E+04  0.32697823628E+04  0.00000000000E+00 0. -1.
         21    1    1    2  503  505  0.58850195615E+02 -0.23261226748E+02 -0.27156677278E+03  0.27884214580E+03  0.00000000000E+00 0. -1.
         21    1    1    2  504  502  0.25066285224E+02  0.48566632901E+02 -0.20431685806E+04  0.20438994313E+04  0.00000000000E+00 0. -1.
         21    1    1    2  505  501  0.51101808201E+02 -0.25159896466E+02 -0.93035981100E+02  0.10908762061E+03  0.00000000000E+00 0. -1.
         21    1    1    2  506  503 -0.13501828904E+03 -0.14550968690E+00 -0.84462023093E+03  0.85534396242E+03  0.00000000000E+00 0. -1.
<scales pt_clust_3="52.99638" pt_clust_4="54.65379" pt_clust_5="52.99638" pt_clust_6="122.32532"></scales>
<clustering>
<clus scale="   52.996">  3  5 -1 -1</clus>
<clus scale="   54.654">  2  4  1 -1</clus>
<clus scale="  122.325">  2  6  1 -1</clus>
<clus scale="  134.476">  1  3  2 -1</clus>
</clustering>
</event>
<event>
 6    0  0.1555973E+002  0.2373083E+03  0.7546771E-02  0.1121599E+00
         21   -1    0    0  504  501  0.00000000000E+00  0.00000000000E+00  0.97676326561E+03  0.97676326561E+03  0.00000000000E+00 0.  1.
         21   -1    0    0  503  502 -0.00000000000E+00 -0.00000000000E+00 -0.60254387093E+03  0.60254387093E+03  0.00000000000E+00 0.  1.
         21    1    1    2  503  506  0.27719387344E+02 -0.45244710838E+02 -0.33025954604E+02  0.62499295765E+02  0.00000000000E+00 0.  1.
         21    1    1    2  504  502  0.18662546643E+01  0.72724468864E+02 -0.42789714192E+03  0.43403720502E+03  0.00000000000E+00 0.  1.
         21    1    1    2  505  501 -0.17024539095E+03  0.14444172371E+03  0.83113877065E+03  0.86060360257E+03  0.00000000000E+00 0.  1.
         21    1    1    2  506  505  0.14065974894E+03 -0.17192148174E+03  0.40037205586E+01  0.22216703318E+03  0.00000000000E+00 0.  1.
<scales pt_clust_3="33.43509" pt_clust_4="72.74841" pt_clust_5="227.23399" pt_clust_6="33.43509"></scales>
<clustering>
<clus scale="   33.435">  3  6 -1 -1</clus>
<clus scale="   72.748">  2  4  1 -1</clus>
<clus scale="  227.234">  1  5  2 -1</clus>
<clus scale="  227.234">  1  3  2 -1</clus>
</clustering>
</event>
<event>
 6    0  0.1555973E+002  0.1214657E+03  0.7546771E-02  0.1240698E+00
         21   -1    0    0  504  501  0.00000000000E+00  0.00000000000E+00  0.13650220055E+03  0.13650220055E+03  0.00000000000E+00 0.  1.
         21   -1    0    0  503  502 -0.00000000000E+00 -0.00000000000E+00 -0.20628593744E+04  0.20628593744E+04  0.00000000000E+00 0. -1.
         21    1    1    2  503  505 -0.38676189691E+02 -0.13931940093E+02 -0.69211435696E+02  0.80499499594E+02  0.00000000000E+00 0.  1.
         21    1    1    2  504  502  0.69237566156E+01 -0.31418972668E+02 -0.18899001010E+04  0.18901739291E+04  0.00000000000E+00 0. -1.
         21    1    1    2  505  506 -0.39815544967E+02 -0.49271979702E+02 -0.52759632927E+02  0.82441400227E+02  0.00000000000E+00 0.  1.
         21    1    1    2  506  501  0.71567978042E+02  0.94622892463E+02  0.85513995799E+02  0.14624674607E+03  0.00000000000E+00 0.  1.
<scales pt_clust_3="31.37682" pt_clust_4="32.17282" pt_clust_5="31.37682" pt_clust_6="115.05134"></scales>
<clustering>
<clus scale="   31.377">  3  5 -1 -1</clus>
<clus scale="   32.173">  2  4  1 -1</clus>
<clus scale="  115.051">  1  6  2 -1</clus>
<clus scale="  115.051">  1  3  2 -1</clus>
</clustering>
</event>
<event>
 6    0  0.1555973E+002  0.1172358E+03  0.7546771E-02  0.1247728E+00
         21   -1    0    0  503  501  0.00000000000E+00  0.00000000000E+00  0.15406634193E+04  0.15406634193E+04  0.00000000000E+00 0.  1.
         21   -1    0    0  506  502 -0.00000000000E+00 -0.00000000000E+00 -0.30929127348E+02  0.30929127348E+02  0.00000000000E+00 0.  1.
         21    1    1    2  503  502  0.38863367691E+02  0.49614699160E+02  0.15869536990E+03  0.17075186719E+03  0.00000000000E+00 0.  1.
         21    1    1    2  504  505 -0.57111913305E+02  0.58595158482E+02  0.26682172419E+03  0.27908600061E+03  0.00000000000E+00 0.  1.
         21    1    1    2  505  501  0.10309482270E+03 -0.11152161811E+03  0.95588472012E+03  0.96787458482E+03  0.00000000000E+00 0.  1.
         21    1    1    2  506  504 -0.84846277091E+02  0.33117604686E+01  0.12833247772E+03  0.15388009401E+03  0.00000000000E+00 0.  1.
<scales pt_clust_3="63.02364" pt_clust_4="117.23585" pt_clust_5="14000.00000" pt_clust_6="70.99739"></scales>
<clustering>
<clus scale="   63.024">  2  3  1 -1</clus>
<clus scale="   70.997">  2  6  1 -1</clus>
<clus scale="  117.236">  2  4  1 -1</clus>
<clus scale="  117.236">  1  3  2 -1</clus>
</clustering>
</event>
<event>
 6    0  0.1555973E+002  0.1875807E+03  0.7546771E-02  0.1160662E+00
         21   -1    0    0  504  501  0.00000000000E+00  0.00000000000E+00  0.33727819448E+03  0.33727819448E+03  0.00000000000E+00 0. -1.
         21   -1    0    0  505  502 -0.00000000000E+00 -0.00000000000E+00 -0.22869487227E+03  0.22869487227E+03  0.00000000000E+00 0. -1.
         21    1    1    2  503  506  0.15955279975E+02 -0.35171119458E+02  0.35248581505E+00  0.38622569169E+02  0.00000000000E+00 0.  1.
         21    1    1    2  504  502 -0.13483039426E+03  0.10575306964E+03  0.10775167903E+03  0.20241880171E+03  0.00000000000E+00 0. -1.
         21    1    1    2  505  503  0.21787663246E+02  0.44054098284E+02 -0.12172942758E+03  0.13127649974E+03  0.00000000000E+00 0. -1.
         21    1    1    2  506  501  0.97087451035E+02 -0.11463604847E+03  0.12220858493E+03  0.19365519613E+03  0.00000000000E+00 0. -1.
<scales pt_clust_3="30.88735" pt_clust_4="177.41374" pt_clust_5="49.14739" pt_clust_6="30.88735"></scales>
<clustering>
<clus scale="   30.887">  3  6 -1 -1</clus>
<clus scale="   49.147">  2  5  1 -1</clus>
<clus scale="  177.414">  1  4  2 -1</clus>
<clus scale="  177.414">  1  3  2 -1</clus>
</clustering>
</event>
<event>
 6    0  0.1555973E+002  0.7260701E+02  0.7546771E-02  0.1351446E+00
         21   -1    0    0  504  501  0.00000000000E+00  0.00000000000E+00  0.54273302289E+03  0.54273302289E+03  0.00000000000E+00 0.  1.
         21   -1    0    0  506  502 -0.00000000000E+00 -0.00000000000E+00 -0.19356241734E+03  0.19356241734E+03  0.00000000000E+00 0. -1.
         21    1    1    2  503  502 -0.20885772619E+02  0.44491197487E+02  0.33428287127E+02  0.59440159252E+02  0.00000000000E+00 0. -1.
         21    1    1    2  504  503  0.18131389170E+02 -0.11702426576E+03  0.37332365903E+03  0.39165543586E+03  0.00000000000E+00 0.  1.
         21    1    1    2  505  501  0.27477346883E+02  0.46865912415E+02  0.10528768073E+03  0.11847748331E+03  0.00000000000E+00 0. -1.
         21    1    1    2  506  505 -0.24722963434E+02  0.25667155857E+02 -0.16286902135E+03  0.16672236180E+03  0.00000000000E+00 0. -1.
<scales pt_clust_3="14000.00000" pt_clust_4="72.60701" pt_clust_5="57.08100" pt_clust_6="35.63745"></scales>
<clustering>
<clus scale="   35.637">  2  6  1 -1</clus>
<clus scale="   57.081">  1  5  2 -1</clus>
<clus scale="   72.607">  1  4  2 -1</clus>
<clus scale="   57.081">  1  3  2 -1</clus>
</clustering>
</event>
<event>
 6    0  0.1555973E+002  0.6344968E+02  0.7546771E-02  0.1383900E+00
         21   -1    0    0  505  501  0.00000000000E+00  0.00000000000E+00  0.33101041559E+03  0.33101041559E+03  0.00000000000E+00 0.  1.
         21   -1    0    0  504  502 -0.00000000000E+00 -0.00000000000E+00 -0.10162003689E+03  0.10162003689E+03  0.00000000000E+00 0. -1.
         21    1    1    2  503  501 -0.41210025985E+02 -0.76204236799E+02  0.62821045837E+02  0.10701325034E+03  0.00000000000E+00 0. -1.
         21    1    1    2  504  503 -0.45220098265E+02  0.52010529058E+02 -0.41754695499E+02  0.80581679160E+02  0.00000000000E+00 0. -1.
         21    1    1    2  505  506  0.34060013602E+02  0.40736628537E+02  0.16990916415E+03  0.17801314978E+03  0.00000000000E+00 0.  1.
         21    1    1    2  506  502  0.52370110647E+02 -0.16542920795E+02  0.38414864208E+02  0.67022373203E+02  0.00000000000E+00 0.  1.
<scales pt_clust_3="58.77740" pt_clust_4="63.44968" pt_clust_5="53.09950" pt_clust_6="14000.00000"></scales>
<clustering>
<clus scale="   53.100">  1  5  2 -1</clus>
<clus scale="   58.777">  1  3  2 -1</clus>
<clus scale="   63.450">  2  4  1 -1</clus>
<clus scale="   53.100">  1  3  2 -1</clus>
</clustering>
</event>
<event>
 6    0  0.1555973E+002  0.1464874E+03  0.7546771E-02  0.1204857E+00
         21   -1    0    0  504  501  0.00000000000E+00  0.00000000000E+00  0.30471977138E+03  0.30471977138E+03  0.00000000000E+00 0.  1.
         21   -1    0    0  505  502 -0.00000000000E+00 -0.00000000000E+00 -0.71962246286E+03  0.71962246286E+03  0.00000000000E+00 0.  1.
         21    1    1    2  503  502  0.51582209899E+02  0.82261639846E+02  0.11928113980E+03  0.15380407043E+03  0.00000000000E+00 0.  1.
         21    1    1    2  504  503  0.18431958367E+02  0.37636920115E+02 -0.66909248670E+00  0.41913273909E+02  0.00000000000E+00 0.  1.
         21    1    1    2  505  506 -0.13664421942E+03  0.55383935749E+02 -0.60891712881E+03  0.62651344183E+03  0.00000000000E+00 0.  1.
         21    1    1    2  506  501  0.66630051151E+02 -0.17528249571E+03  0.75402390009E+02  0.20211144806E+03  0.00000000000E+00 0.  1.
<scales pt_clust_3="117.14674" pt_clust_4="41.90793" pt_clust_5="146.48740" pt_clust_6="14000.00000"></scales>
<clustering>
<clus scale="   41.908">  1  4  2 -1</clus>
<clus scale="  117.147">  1  3  2 -1</clus>
<clus scale="  146.487">  2  5  1 -1</clus>
<clus scale="   41.908">  1  3  2 -1</clus>
</clustering>
</event>
<event>
 6    0  0.1555973E+002  0.1384566E+03  0.7546771E-02  0.1215421E+00
         21   -1    0    0  505  501  0.00000000000E+00  0.00000000000E+00  0.37566250247E+03  0.37566250247E+03  0.00000000000E+00 0. -1.
         21   -1    0    0  504  502 -0.00000000000E+00 -0.00000000000E+00 -0.30109689012E+03  0.30109689012E+03  0.00000000000E+00 0.  1.
         21    1    1    2  503  501  0.14493237637E+02 -0.28813869445E+02  0.90777520122E+02  0.96337174388E+02  0.00000000000E+00 0. -1.
         21    1    1    2  504  506 -0.13941468321E+03 -0.12464807098E+02 -0.25689828280E+03  0.29255521362E+03  0.00000000000E+00 0.  1.
         21    1    1    2  505  502  0.63120510409E+01  0.32842598222E+02  0.25664200869E+02  0.42156013243E+02  0.00000000000E+00 0. -1.
         21    1    1    2  506  503  0.11860939453E+03  0.84360783204E+01  0.21502217416E+03  0.24571099135E+03  0.00000000000E+00 0. -1.
<scales pt_clust_3="32.25357" pt_clust_4="138.45656" pt_clust_5="30.46308" pt_clust_6="14000.00000"></scales>
<clustering>
<clus scale="   32.254">  1  3  2 -1</clus>
<clus scale="   30.463">  1  5  2 -1</clus>
<clus scale="  138.457">  2  4  1 -1</clus>
<clus scale="   32.254">  1  3  2 -1</clus>
</clustering>
</event>
<event>
 6    0  0.1555973E+002  0.8459447E+02  0.7546771E-02  0.1316496E+00
         21   -1    0    0  503  501  0.00000000000E+00  0.00000000000E+00  0.31148271262E+03  0.31148271262E+03  0.00000000000E+00 0.  1.
         21   -1    0    0  504  502 -0.00000000000E+00 -0.00000000000E+00 -0.37996084300E+03  0.37996084300E+03  0.00000000000E+00 0.  1.
         21    1    1    2  503  505 -0.15875260325E+02  0.53154208040E+02  0.10754111652E+03  0.12100613813E+03  0.00000000000E+00 0.  1.
         21    1    1    2  504  506  0.10494817852E+02  0.44108899541E+02 -0.33723813755E+03  0.34027238742E+03  0.00000000000E+00 0.  1.
         21    1    1    2  505  502  0.17138027865E+02 -0.12529735009E+03  0.15333755285E+03  0.19876001371E+03  0.00000000000E+00 0.  1.
         21    1    1    2  506  501 -0.11757585392E+02  0.28034242505E+02  0.78813378068E+01  0.31405016362E+02  0.00000000000E+00 0.  1.
<scales pt_clust_3="84.59447" pt_clust_4="45.46795" pt_clust_5="14000.00000" pt_clust_6="30.39999"></scales>
<clustering>
<clus scale="   30.400">  1  6  2 -1</clus>
<clus scale="   45.468">  2  4  1 -1</clus>
<clus scale="   84.594">  1  3  2 -1</clus>
<clus scale="   30.400">  1  3  2 -1</clus>
</clustering>
</event>
<event>
 6    0  0.1555973E+002  0.8905685E+02  0.7546771E-02  0.1305152E+00
         21   -1    0    0  506  501  0.00000000000E+00  0.00000000000E+00  0.12227574827E+04  0.12227574827E+04  0.00000000000E+00 0. -1.
         21   -1    0    0  505  502 -0.00000000000E+00 -0.00000000000E+00 -0.21378127450E+03  0.21378127450E+03  0.00000000000E+00 0. -1.
         21    1    1    2  503  502  0.56187729418E+02  0.11498147272E+01 -0.18300685166E+03  0.19144161189E+03  0.00000000000E+00 0. -1.
         21    1    1    2  504  501  0.68915508661E+02 -0.36224348673E+02  0.41949358835E+03  0.42665726460E+03  0.00000000000E+00 0.  1.
         21    1    1    2  505  504  0.17669288255E+02  0.47708596329E+02  0.23823373113E+02  0.56177104034E+02  0.00000000000E+00 0. -1.
         21    1    1    2  506  503 -0.14277252633E+03 -0.12634062384E+02  0.74866609842E+03  0.76226277669E+03  0.00000000000E+00 0. -1.
<scales pt_clust_3="89.05685" pt_clust_4="77.74248" pt_clust_5="50.87547" pt_clust_6="14000.00000"></scales>
<clustering>
<clus scale="   50.875">  2  5  1 -1</clus>
<clus scale="   77.742">  1  4  2 -1</clus>
<clus scale="   89.057">  2  3  1 -1</clus>
<clus scale="   77.742">  1  3  2 -1</clus>
</clustering>
</event>
<event>
 6    0  0.1555973E+002  0.1933708E+03  0.7546771E-02  0.1155456E+00
         21   -1    0    0  504  501  0.00000000000E+00  0.00000000000E+00  0.20182375572E+03  0.20182375572E+03  0.00000000000E+00 0. -1.
         21   -1    0    0  506  502 -0.00000000000E+00 -0.00000000000E+00 -0.44008634821E+03  0.44008634821E+03  0.00000000000E+00 0.  1.
         21    1    1    2  503  502  0.12964423879E+03  0.38995835925E+02 -0.19152046224E+03  0.23453867767E+03  0.00000000000E+00 0.  1.
         21    1    1    2  504  503  0.29232565162E+02 -0.18266703142E+03 -0.33647929701E+02  0.18802651517E+03  0.00000000000E+00 0.  1.
         21    1    1    2  505  501 -0.73924016080E+02  0.87007405681E+02 -0.23940249483E+02  0.11665412270E+03  0.00000000000E+00 0. -1.
         21    1    1    2  506  505 -0.84952787867E+02  0.56663789814E+02  0.10846048937E+02  0.10269078839E+03  0.00000000000E+00 0. -1.
<scales pt_clust_3="135.38207" pt_clust_4="187.97553" pt_clust_5="42.89804" pt_clust_6="42.89804"></scales>
<clustering>
<clus scale="   42.898">  5  6 -1 -1</clus>
<clus scale="  135.382">  2  3  1 -1</clus>
<clus scale="  187.976">  1  4  2 -1</clus>
<clus scale="  187.976">  1  3  2 -1</clus>
</clustering>
</event>
<event>
 6    0  0.1555973E+002  0.1083095E+03  0.7546771E-02  0.1263733E+00
         21   -1    0    0  503  501  0.00000000000E+00  0.00000000000E+00  0.99331086562E+03  0.99331086562E+03  0.00000000000E+00 0. -1.
         21   -1    0    0  506  502 -0.00000000000E+00 -0.00000000000E+00 -0.12630100536E+03  0.12630100536E+03  0.00000000000E+00 0.  1.
         21    1    1    2  503  504  0.32452894572E+02 -0.20152098216E+02  0.27986539474E+03  0.28246050450E+03  0.00000000000E+00 0. -1.
         21    1    1    2  504  505 -0.44445905616E+01 -0.10256650418E+03  0.65186773130E+03  0.65990240284E+03  0.00000000000E+00 0. -1.
         21    1    1    2  505  502 -0.21264829754E+02  0.60864270260E+02  0.24075678366E+02  0.68820713942E+02  0.00000000000E+00 0.  1.
         21    1    1    2  506  501 -0.67434742567E+01  0.61854332136E+02 -0.88798944156E+02  0.10842824970E+03  0.00000000000E+00 0.  1.
<scales pt_clust_3="38.20075" pt_clust_4="108.30949" pt_clust_5="14000.00000" pt_clust_6="61.89766"></scales>
<clustering>
<clus scale="   38.201">  1  3  2 -1</clus>
<clus scale="   61.898">  2  6  1 -1</clus>
<clus scale="  108.309">  1  4  2 -1</clus>
<clus scale="   38.201">  1  3  2 -1</clus>
</clustering>
</event>
<event>
 6    0  0.1555973E+002  0.9781094E+02  0.7546771E-02  0.1284968E+00
         21   -1    0    0  506  501  0.00000000000E+00  0.00000000000E+00  0.14785820659E+03  0.14785820659E+03  0.00000000000E+00 0.  1.
         21   -1    0    0  505  502 -0.00000000000E+00 -0.00000000000E+00 -0.81026375808E+03  0.81026375808E+03  0.00000000000E+00 0.  1.
         21    1    1    2  503  502  0.16946035938E+02  0.44416805611E+02 -0.37939181264E+02  0.60822711463E+02  0.00000000000E+00 0.  1.
         21    1    1    2  504  501 -0.78648360616E+02 -0.61253552008E+02  0.45736084237E+01  0.99792184840E+02  0.00000000000E+00 0.  1.
         21    1    1    2  505  504 -0.16236077229E+02 -0.40440750115E+02 -0.68458507371E+03  0.68597069006E+03  0.00000000000E+00 0.  1.
         21    1    1    2  506  503  0.77938401907E+02  0.57277496512E+02  0.55545095062E+02  0.11153637830E+03  0.00000000000E+00 0.  1.
<scales pt_clust_3="30.32629" pt_clust_4="14000.00000" pt_clust_5="43.57826" pt_clust_6="97.81094"></scales>
<clustering>
<clus scale="   43.578">  2  5  1 -1</clus>
<clus scale="   30.326">  2  3  1 -1</clus>
<clus scale="   97.811">  1  6  2 -1</clus>
<clus scale="   97.811">  1  3  2 -1</clus>
</clustering>
</event>
<event>
 6    0  0.1555973E+002  0.1504459E+03  0.7546771E-02  0.1199926E+00
         21   -1    0    0  505  501  0.00000000000E+00  0.00000000000E+00  0.20332377194E+03  0.20332377194E+03  0.00000000000E+00 0.  1.
         21   -1    0    0  506  502 -0.00000000000E+00 -0.00000000000E+00 -0.19041537608E+03  0.19041537608E+03  0.00000000000E+00 0.  1.
         21    1    1    2  503  501  0.75189602594E+02 -0.67339145300E+02  0.68676953602E+02  0.12208423643E+03  0.00000000000E+00 0.  1.
         21    1    1    2  504  502 -0.13616441575E+03  0.21724633109E+02 -0.79590079303E+02  0.15920831801E+03  0.00000000000E+00 0.  1.
         21    1    1    2  505  504  0.12593756681E+02  0.56053949673E+02  0.25652538979E+02  0.62918206724E+02  0.00000000000E+00 0.  1.
         21    1    1    2  506  503  0.48381056471E+02 -0.10439437483E+02 -0.18310174165E+01  0.49528386861E+02  0.00000000000E+00 0.  1.
<scales pt_clust_3="42.38304" pt_clust_4="137.73405" pt_clust_5="57.45127" pt_clust_6="42.38304"></scales>
<clustering>
<clus scale="   42.383">  3  6 -1 -1</clus>
<clus scale="   57.451">  1  5  2 -1</clus>
<clus scale="  137.734">  2  4  1 -1</clus>
<clus scale="   57.451">  1  3  2 -1</clus>
</clustering>
</event>
<event>
 6    0  0.1555973E+002  0.1171688E+03  0.7546771E-02  0.1247842E+00
         21   -1    0    0  504  501  0.00000000000E+00  0.00000000000E+00  0.62252545849E+02  0.62252545849E+02  0.00000000000E+00 0.  1.
         21   -1    0    0  505  502 -0.00000000000E+00 -0.00000000000E+00 -0.57825495677E+03  0.57825495677E+03  0.00000000000E+00 0.  1.
         21    1    1    2  503  501  0.60095303624E+02 -0.13215964818E+03 -0.16089083021E+03  0.21671058436E+03  0.00000000000E+00 0.  1.
         21    1    1    2  504  506 -0.22762501616E+02 -0.24637047355E+02 -0.31773430040E+02  0.46202450570E+02  0.00000000000E+00 0.  1.
         21    1    1    2  505  503  0.17252552136E+02  0.11068064700E+03 -0.25588097907E+03  0.27932585205E+03  0.00000000000E+00 0.  1.
         21    1    1    2  506  502 -0.54585354144E+02  0.46116048540E+02 -0.67457171608E+02  0.98268615648E+02  0.00000000000E+00 0.  1.
<scales pt_clust_3="117.16882" pt_clust_4="33.54274" pt_clust_5="14000.00000" pt_clust_6="72.48402"></scales>
<clustering>
<clus scale="   33.543">  1  4  2 -1</clus>
<clus scale="   72.484">  1  6  2 -1</clus>
<clus scale="  117.169">  1  3  2 -1</clus>
<clus scale="   33.543">  1  3  2 -1</clus>
</clustering>
</event>
<event>
 6    0  0.1555973E+002  0.2360690E+03  0.7546771E-02  0.1122440E+00
         21   -1    0    0  506  501  0.00000000000E+00  0.00000000000E+00  0.13984707617E+03  0.13984707617E+03  0.00000000000E+00 0.  1.
         21   -1    0    0  504  502 -0.00000000000E+00 -0.00000000000E+00 -0.95927319000E+03  0.95927319000E+03  0.00000000000E+00 0.  1.
         21    1    1    2  503  502  0.42803962076E+02  0.13409730959E+03 -0.29901613177E+03  0.33049192829E+03  0.00000000000E+00 0. -1.
         21    1    1    2  504  501  0.73386513730E+02 -0.29749109190E+03 -0.25576982886E+03  0.39912997320E+03  0.00000000000E+00 0.  1.
         21    1    1    2  505  503 -0.14205990513E+03  0.12892430139E+03 -0.26406956172E+03  0.32639734307E+03  0.00000000000E+00 0.  1.
         21    1    1    2  506  505  0.25869429323E+02  0.34469480921E+02 -0.57059148429E+00  0.43101021602E+02  0.00000000000E+00 0. -1.
<scales pt_clust_3="146.17734" pt_clust_4="236.06898" pt_clust_5="14000.00000" pt_clust_6="43.09724"></scales>
<clustering>
<clus scale="   43.097">  1  6  2 -1</clus>
<clus scale="  146.177">  2  3  1 -1</clus>
<clus scale="  236.069">  1  4  2 -1</clus>
<clus scale="   43.097">  1  3  2 -1</clus>
</clustering>
</event>
<event>
 6    0  0.1555973E+002  0.1892704E+03  0.7546771E-02  0.1159121E+00
         21   -1    0    0  504  501  0.00000000000E+00  0.00000000000E+00  0.11493932113E+04  0.11493932113E+04  0.00000000000E+00 0. -1.
         21   -1    0    0  506  502 -0.00000000000E+00 -0.00000000000E+00 -0.67261380614E+03  0.67261380614E+03  0.00000000000E+00 0.  1.
         21    1    1    2  503  501 -0.63755216853E+02 -0.29025496440E+02  0.54477420809E+03  0.54925963344E+03  0.00000000000E+00 0. -1.
         21    1    1    2  504  502 -0.12589384972E+02  0.80040213172E+02  0.93116256334E+01  0.81557554589E+02  0.00000000000E+00 0.  1.
         21    1    1    2  505  503 -0.88663178784E+02 -0.14586394402E+03  0.52892349843E+03  0.55578549515E+03  0.00000000000E+00 0. -1.
         21    1    1    2  506  505  0.16500778061E+03  0.94849227286E+02 -0.60622992701E+03  0.63540433425E+03  0.00000000000E+00 0.  1.
<scales pt_clust_3="70.05146" pt_clust_4="79.77134" pt_clust_5="189.27044" pt_clust_6="14000.00000"></scales>
<clustering>
<clus scale="   70.051">  1  3  2 -1</clus>
<clus scale="   79.771">  1  4  2 -1</clus>
<clus scale="  189.270">  1  5  2 -1</clus>
<clus scale="   70.051">  1  3  2 -1</clus>
</clustering>
</event>
<event>
 6    0  0.1555973E+002  0.1535325E+03  0.7546771E-02  0.1196198E+00
         21   -1    0    0  503  501  0.00000000000E+00  0.00000000000E+00  0.15907785349E+04  0.15907785349E+04  0.00000000000E+00 0. -1.
         21   -1    0    0  504  502 -0.00000000000E+00 -0.00000000000E+00 -0.83348362903E+02  0.83348362903E+02  0.00000000000E+00 0.  1.
         21    1    1    2  503  506  0.47517288924E+02  0.22514404790E+01  0.29470415652E+03  0.29851884631E+03  0.00000000000E+00 0. -1.
         21    1    1    2  504  501 -0.12140639886E+03  0.81952252020E+02 -0.98520769504E+01  0.14680854443E+03  0.00000000000E+00 0.  1.
         21    1    1    2  505  502  0.25287865698E+02 -0.25781591074E+02  0.67596274337E+03  0.67692672942E+03  0.00000000000E+00 0. -1.
         21    1    1    2  506  505  0.48601244242E+02 -0.58422101425E+02  0.54661534911E+03  0.55187277769E+03  0.00000000000E+00 0. -1.
<scales pt_clust_3="47.57060" pt_clust_4="144.46815" pt_clust_5="35.82757" pt_clust_6="35.82757"></scales>
<clustering>
<clus scale="   35.828">  5  6 -1 -1</clus>
<clus scale="   47.571">  1  3  2 -1</clus>
<clus scale="  144.468">  2  4  1 -1</clus>
<clus scale="   47.571">  1  3  2 -1</clus>
</clustering>
</event>
<event>
 6    0  0.1555973E+002  0.1162401E+03  0.7546771E-02  0.1249432E+00
         21   -1    0    0  506  501  0.00000000000E+00  0.00000000000E+00  0.55180185947E+03  0.55180185947E+03  0.00000000000E+00 0.  1.
         21   -1    0    0  505  502 -0.00000000000E+00 -0.00000000000E+00 -0.22701932873E+03  0.22701932873E+03  0.00000000000E+00 0.  1.
         21    1    1    2  503  502  0.39863322481E+02  0.10529541450E+03 -0.19855482077E+03  0.22825473850E+03  0.00000000000E+00 0.  1.
         21    1    1    2  504  503 -0.31658899747E+02 -0.22473549313E+02  0.10629076531E+03  0.11315950310E+03  0.00000000000E+00 0.  1.
         21    1    1    2  505  501  0.31816884460E+02 -0.61292992741E+02  0.13413421394E+03  0.15086793047E+03  0.00000000000E+00 0. -1.
         21    1    1    2  506  504 -0.40021307194E+02 -0.21528872446E+02  0.28291237227E+03  0.28653901612E+03  0.00000000000E+00 0.  1.
<scales pt_clust_3="110.93336" pt_clust_4="32.09276" pt_clust_5="69.05900" pt_clust_6="32.09276"></scales>
<clustering>
<clus scale="   32.093">  4  6 -1 -1</clus>
<clus scale="   69.059">  1  5  2 -1</clus>
<clus scale="  110.933">  2  3  1 -1</clus>
<clus scale="   69.059">  1  3  2 -1</clus>
</clustering>
</event>
<event>
 6    0  0.1555973E+002  0.7205294E+02  0.7546771E-02  0.1353248E+00
         21   -1    0    0  503  501  0.00000000000E+00  0.00000000000E+00  0.54373119833E+03  0.54373119833E+03  0.00000000000E+00 0. -1.
         21   -1    0    0  504  502 -0.00000000000E+00 -0.00000000000E+00 -0.56611773330E+02  0.56611773330E+02  0.00000000000E+00 0. -1.
         21    1    1    2  503  505 -0.14107335766E+02  0.87129991472E+02  0.27560176204E+03  0.28939071093E+03  0.00000000000E+00 0. -1.
         21    1    1    2  504  506 -0.45933398136E+02 -0.70611291372E+02  0.71685726774E+02  0.11061046495E+03  0.00000000000E+00 0. -1.
         21    1    1    2  505  502  0.73780682288E+02  0.12775965184E+02  0.21847356395E+02  0.78000777859E+02  0.00000000000E+00 0. -1.
         21    1    1    2  506  501 -0.13739948386E+02 -0.29294665284E+02  0.11798457980E+03  0.12234101792E+03  0.00000000000E+00 0. -1.
<scales pt_clust_3="71.48592" pt_clust_4="14000.00000" pt_clust_5="72.05294" pt_clust_6="32.35682"></scales>
<clustering>
<clus scale="   32.357">  1  6  2 -1</clus>
<clus scale="   71.486">  1  3  2 -1</clus>
<clus scale="   72.053">  2  5  1 -1</clus>
<clus scale="   32.357">  1  3  2 -1</clus>
</clustering>
</event>
<event>
 6    0  0.1555973E+002  0.1405697E+03  0.7546771E-02  0.1212564E+00
         21   -1    0    0  504  501  0.00000000000E+00  0.00000000000E+00  0.77361335770E+03  0.77361335770E+03  0.00000000000E+00 0.  1.
         21   -1    0    0  503  502 -0.00000000000E+00 -0.00000000000E+00 -0.95312116924E+02  0.95312116924E+02  0.00000000000E+00 0.  1.
         21    1    1    2  503  505  0.70084505626E+02 -0.80370893149E+02 -0.39336891314E+02  0.11366050067E+03  0.00000000000E+00 0.  1.
         21    1    1    2  504  502  0.40334866605E+02  0.13504394431E+02  0.27785366392E+02  0.50806463354E+02  0.00000000000E+00 0.  1.
         21    1    1    2  505  506 -0.49696522864E+02  0.25234670151E+02  0.15818008098E+03  0.16771246519E+03  0.00000000000E+00 0.  1.
         21    1    1    2  506  501 -0.60722849366E+02  0.41631828566E+02  0.53167268472E+03  0.53674604541E+03  0.00000000000E+00 0.  1.
<scales pt_clust_3="126.72192" pt_clust_4="42.53552" pt_clust_5="52.41000" pt_clust_6="52.41000"></scales>
<clustering>
<clus scale="   42.536">  2  4  1 -1</clus>
<clus scale="   52.410">  5  6 -1 -1</clus>
<clus scale="  126.722">  2  3  1 -1</clus>
<clus scale="  140.570">  1  3  2 -1</clus>
</clustering>
</event>
<event>
 6    0  0.1555973E+002  0.1179037E+03  0.7546771E-02  0.1246596E+00
         21   -1    0    0  504  501  0.00000000000E+00  0.00000000000E+00  0.78410804598E+03  0.78410804598E+03  0.00000000000E+00 0. -1.
         21   -1    0    0  501  502 -0.00000000000E+00 -0.00000000000E+00 -0.18207209734E+03  0.18207209734E+03  0.00000000000E+00 0. -1.
         21    1    1    2  503  502  0.37089896916E+02 -0.11856065577E+02 -0.14267123745E+03  0.14788951531E+03  0.00000000000E+00 0. -1.
         21    1    1    2  504  505  0.24223954127E+02 -0.32254220767E+02  0.34018144045E+03  0.34256466125E+03  0.00000000000E+00 0. -1.
         21    1    1    2  505  506  0.86987125683E+02 -0.15054213879E+02  0.17663754190E+03  0.19746951815E+03  0.00000000000E+00 0. -1.
         21    1    1    2  506  503 -0.14830097673E+03  0.59164500223E+02  0.22788820374E+03  0.27825644860E+03  0.00000000000E+00 0. -1.
<scales pt_clust_3="38.93876" pt_clust_4="41.37264" pt_clust_5="117.90369" pt_clust_6="14000.00000"></scales>
<clustering>
<clus scale="   38.939">  2  3  1 -1</clus>
<clus scale="   41.373">  1  4  2 -1</clus>
<clus scale="  117.904">  1  5  2 -1</clus>
<clus scale="   41.373">  1  3  2 -1</clus>
</clustering>
</event>
<event>
 6    0  0.1555973E+002  0.1486828E+03  0.7546771E-02  0.1202101E+00
         21   -1    0    0  504  501  0.00000000000E+00  0.00000000000E+00  0.39104058306E+02  0.39104058306E+02  0.00000000000E+00 0. -1.
         21   -1    0    0  503  502 -0.00000000000E+00 -0.00000000000E+00 -0.15665954727E+04  0.15665954727E+04  0.00000000000E+00 0. -1.
         21    1    1    2  503  506  0.35804556380E+02  0.10956962176E+03 -0.12625824474E+04  0.12678335477E+04  0.00000000000E+00 0. -1.
         21    1    1    2  504  502 -0.25322329436E+02  0.30370830609E+02 -0.12619194264E+03  0.13224225537E+03  0.00000000000E+00 0. -1.
         21    1    1    2  505  501 -0.30004598822E+02 -0.99057566726E+02 -0.11414743050E+03  0.15408540932E+03  0.00000000000E+00 0. -1.
         21    1    1    2  506  505  0.19522371878E+02 -0.40882885646E+02 -0.24569593911E+02  0.51538318632E+02  0.00000000000E+00 0. -1.
<scales pt_clust_3="136.97104" pt_clust_4="39.54248" pt_clust_5="38.26735" pt_clust_6="38.26735"></scales>
<clustering>
<clus scale="   38.267">  5  6 -1 -1</clus>
<clus scale="   39.542">  2  4  1 -1</clus>
<clus scale="  136.971">  2  3  1 -1</clus>
<clus scale="  148.683">  1  3  2 -1</clus>
</clustering>
</event>
<event>
 6    0  0.1555973E+002  0.2582435E+03  0.7546771E-02  0.1108203E+00
         21   -1    0    0  505  501  0.00000000000E+00  0.00000000000E+00  0.63381417432E+03  0.63381417432E+03  0.00000000000E+00 0. -1.
         21   -1    0    0  506  502 -0.00000000000E+00 -0.00000000000E+00 -0.55667162445E+03  0.55667162445E+03  0.00000000000E+00 0. -1.
         21    1    1    2  503  501 -0.26162396530E+03 -0.11765489058E+03  0.14350043897E+03  0.32075247229E+03  0.00000000000E+00 0. -1.
         21    1    1    2  504  502  0.42322171177E+02 -0.87762793274E+01  0.42214278139E+02  0.60417170828E+02  0.00000000000E+00 0. -1.
         21    1    1    2  505  504  0.15454132008E+03  0.11996631777E+03  0.32041472170E+03  0.37542047213E+03  0.00000000000E+00 0. -1.
         21    1    1    2  506  503  0.64760474038E+02  0.64648521354E+01 -0.42898688893E+03  0.43389568353E+03  0.00000000000E+00 0. -1.
<scales pt_clust_3="243.62576" pt_clust_4="40.25893" pt_clust_5="40.25893" pt_clust_6="65.08236"></scales>
<clustering>
<clus scale="   40.259">  4  5 -1 -1</clus>
<clus scale="   65.082">  2  6  1 -1</clus>
<clus scale="  243.626">  2  3  1 -1</clus>
<clus scale="  258.244">  1  3  2 -1</clus>
</clustering>
</event>
<event>
 6    0  0.1555973E+002  0.8219636E+02  0.7546771E-02  0.1322932E+00
         21   -1    0    0  504  501  0.00000000000E+00  0.00000000000E+00  0.23806151351E+03  0.23806151351E+03  0.00000000000E+00 0. -1.
         21   -1    0    0  505  502 -0.00000000000E+00 -0.00000000000E+00 -0.10661076888E+04  0.10661076888E+04  0.00000000000E+00 0. -1.
         21    1    1    2  503  501 -0.70375681559E+02  0.29374697721E+02  0.10587703605E+03  0.13048201479E+03  0.00000000000E+00 0. -1.
         21    1    1    2  504  506  0.53753412797E+02  0.13834244478E+02  0.23517395218E+02  0.60281701912E+02  0.00000000000E+00 0.  1.
         21    1    1    2  505  503 -0.47525891239E+02 -0.15305581435E+02  0.68675530691E+02  0.84907594930E+02  0.00000000000E+00 0. -1.
         21    1    1    2  506  502  0.64148160001E+02 -0.27903360763E+02 -0.10261161373E+04  0.10284978907E+04  0.00000000000E+00 0. -1.
<scales pt_clust_3="34.57047" pt_clust_4="55.50510" pt_clust_5="34.57047" pt_clust_6="70.22021"></scales>
<clustering>
<clus scale="   34.570">  3  5 -1 -1</clus>
<clus scale="   55.505">  1  4  2 -1</clus>
<clus scale="   70.220">  2  6  1 -1</clus>
<clus scale="   55.505">  1  3  2 -1</clus>
</clustering>
</event>
<event>
 6    0  0.2654519E+002  0.1200675E+03  0.7546771E-02  0.1242986E+00
         21   -1    0    0  506  501  0.00000000000E+00  0.00000000000E+00  0.62980789253E+03  0.62980789253E+03  0.00000000000E+00 0. -1.
         21   -1    0    0  505  502 -0.00000000000E+00 -0.00000000000E+00 -0.28295045151E+03  0.28295045151E+03  0.00000000000E+00 0. -1.
         21    1    1    2  503  502 -0.25232929222E+01  0.88664704038E+02 -0.24609624959E+03  0.26159350300E+03  0.00000000000E+00 0. -1.
         21    1    1    2  504  501 -0.20420462096E+02 -0.83586881040E+02  0.54700341120E+03  0.55372962158E+03  0.00000000000E+00 0. -1.
         21    1    1    2  505  504  0.17858239800E+02  0.34252652751E+02  0.26513067851E+01  0.38719379862E+02  0.00000000000E+00 0. -1.
         21    1    1    2  506  503  0.50855152188E+01 -0.39330475749E+02  0.43298972625E+02  0.58715839584E+02  0.00000000000E+00 0.  1.
<scales pt_clust_3="14000.00000" pt_clust_4="120.06754" pt_clust_5="38.62850" pt_clust_6="38.74143"></scales>
<clustering>
<clus scale="   38.628">  2  5  1 -1</clus>
<clus scale="   38.741">  1  6  2 -1</clus>
<clus scale="  120.068">  1  4  2 -1</clus>
<clus scale="   38.741">  1  3  2 -1</clus>
</clustering>
</event>
<event>
 6    0  0.1555973E+002  0.7528574E+02  0.7546771E-02  0.1342988E+00
         21   -1    0    0  504  501  0.00000000000E+00  0.00000000000E+00  0.72730656571E+03  0.72730656571E+03  0.00000000000E+00 0.  1.
         21   -1    0    0  505  502 -0.00000000000E+00 -0.00000000000E+00 -0.36074619176E+04  0.36074619176E+04  0.00000000000E+00 0. -1.
         21    1    1    2  503  502  0.62248910834E+02  0.16820507098E+02  0.10977642886E+02  0.65409211908E+02  0.00000000000E+00 0. -1.
         21    1    1    2  504  503  0.60546704478E+02 -0.40430489706E+02  0.59964875159E+03  0.60405227688E+03  0.00000000000E+00 0.  1.
         21    1    1    2  505  506 -0.73874994626E+02  0.15438375288E+02 -0.35705655575E+04  0.35713630814E+04  0.00000000000E+00 0. -1.
         21    1    1    2  506  501 -0.48920620686E+02  0.81716073200E+01  0.79783811174E+02  0.93943913161E+02  0.00000000000E+00 0.  1.
<scales pt_clust_3="75.28574" pt_clust_4="35.84756" pt_clust_5="14000.00000" pt_clust_6="49.59841"></scales>
<clustering>
<clus scale="   49.598">  1  6  2 -1</clus>
<clus scale="   35.848">  1  4  2 -1</clus>
<clus scale="   75.286">  1  3  2 -1</clus>
<clus scale="   49.598">  1  3  2 -1</clus>
</clustering>
</event>
<event>
 6    0  0.1555973E+002  0.8950617E+02  0.7546771E-02  0.1304052E+00
         21   -1    0    0  504  501  0.00000000000E+00  0.00000000000E+00  0.27465934080E+03  0.27465934080E+03  0.00000000000E+00 0. -1.
         21   -1    0    0  506  502 -0.00000000000E+00 -0.00000000000E+00 -0.30531331201E+03  0.30531331201E+03  0.00000000000E+00 0. -1.
         21    1    1    2  503  502  0.15475274217E+03 -0.48011542035E+02  0.57341899905E+02  0.17187673741E+03  0.00000000000E+00 0. -1.
         21    1    1    2  504  503 -0.23887300045E+02  0.52054921602E+02  0.42277183354E+02  0.71187626725E+02  0.00000000000E+00 0. -1.
         21    1    1    2  505  501 -0.49988463582E+02 -0.28472721963E+02  0.86709404854E+02  0.10405798036E+03  0.00000000000E+00 0. -1.
         21    1    1    2  506  505 -0.80876978539E+02  0.24429342397E+02 -0.21698245933E+03  0.23285030832E+03  0.00000000000E+00 0. -1.
<scales pt_clust_3="14000.00000" pt_clust_4="57.27406" pt_clust_5="60.71075" pt_clust_6="89.50617"></scales>
<clustering>
<clus scale="   57.274">  1  4  2 -1</clus>
<clus scale="   60.711">  1  5  2 -1</clus>
<clus scale="   89.506">  2  6  1 -1</clus>
<clus scale="   57.274">  1  3  2 -1</clus>
</clustering>
</event>
<event>
 6    0  0.1555973E+002  0.9012741E+02  0.7546771E-02  0.1302543E+00
         21   -1    0    0  505  501  0.00000000000E+00  0.00000000000E+00  0.27313340357E+03  0.27313340357E+03  0.00000000000E+00 0. -1.
         21   -1    0    0  503  502 -0.00000000000E+00 -0.00000000000E+00 -0.20715771884E+04  0.20715771884E+04  0.00000000000E+00 0. -1.
         21    1    1    2  503  506  0.10243558783E+01  0.35618568415E+02 -0.19183842007E+04  0.19187151100E+04  0.00000000000E+00 0. -1.
         21    1    1    2  504  502 -0.92097700555E+02  0.47786711637E+02 -0.91540782075E+02  0.13836643755E+03  0.00000000000E+00 0.  1.
         21    1    1    2  505  504  0.32647963598E+02 -0.49886708444E+02  0.21204710644E+03  0.22026926376E+03  0.00000000000E+00 0. -1.
         21    1    1    2  506  501  0.58425381079E+02 -0.33518571608E+02 -0.56590845396E+00  0.67359780650E+02  0.00000000000E+00 0.  1.
<scales pt_clust_3="35.63330" pt_clust_4="90.12741" pt_clust_5="58.83718" pt_clust_6="14000.00000"></scales>
<clustering>
<clus scale="   35.633">  2  3  1 -1</clus>
<clus scale="   58.837">  1  5  2 -1</clus>
<clus scale="   90.127">  2  4  1 -1</clus>
<clus scale="   58.837">  1  3  2 -1</clus>
</clustering>
</event>
<event>
 6    0  0.1555973E+002  0.3508565E+03  0.7546771E-02  0.1062264E+00
         21   -1    0    0  505  501  0.00000000000E+00  0.00000000000E+00  0.11343869911E+04  0.11343869911E+04  0.00000000000E+00 0.  1.
         21   -1    0    0  504  502 -0.00000000000E+00 -0.00000000000E+00 -0.29775955974E+03  0.29775955974E+03  0.00000000000E+00 0. -1.
         21    1    1    2  503  501 -0.34393050050E+02 -0.34548193248E+02  0.62789295122E+02  0.79491855749E+02  0.00000000000E+00 0. -1.
         21    1    1    2  504  503  0.14198185084E+03 -0.30393868927E+03 -0.14300028867E+03  0.36467335434E+03  0.00000000000E+00 0. -1.
         21    1    1    2  505  506 -0.88002150623E+02  0.19331625484E+03  0.64661171475E+03  0.68060433627E+03  0.00000000000E+00 0.  1.
         21    1    1    2  506  502 -0.19586650167E+02  0.14517062768E+03  0.27022671017E+03  0.30737700450E+03  0.00000000000E+00 0. -1.
<scales pt_clust_3="48.74894" pt_clust_4="337.24552" pt_clust_5="79.90093" pt_clust_6="79.90093"></scales>
<clustering>
<clus scale="   48.749">  1  3  2 -1</clus>
<clus scale="   79.901">  5  6 -1 -1</clus>
<clus scale="  337.246">  2  4  1 -1</clus>
<clus scale="   48.749">  1  3  2 -1</clus>
</clustering>
</event>
<event>
 6    0  0.1555973E+002  0.1631799E+03  0.7546771E-02  0.1185153E+00
         21   -1    0    0  506  501  0.00000000000E+00  0.00000000000E+00  0.12334643011E+04  0.12334643011E+04  0.00000000000E+00 0. -1.
         21   -1    0    0  504  502 -0.00000000000E+00 -0.00000000000E+00 -0.40378915292E+02  0.40378915292E+02  0.00000000000E+00 0. -1.
         21    1    1    2  503  501  0.26714256850E+01  0.18519941974E+03  0.73615753462E+03  0.75910070305E+03  0.00000000000E+00 0. -1.
         21    1    1    2  504  503 -0.14509268041E+02 -0.52922455907E+02  0.23636508021E+02  0.59749390874E+02  0.00000000000E+00 0. -1.
         21    1    1    2  505  502  0.18779691851E+02 -0.83617775176E+02  0.21979697918E+03  0.23591380037E+03  0.00000000000E+00 0. -1.
         21    1    1    2  506  505 -0.69418494942E+01 -0.48659188661E+02  0.21349436396E+03  0.21907932207E+03  0.00000000000E+00 0. -1.
<scales pt_clust_3="158.07485" pt_clust_4="54.87536" pt_clust_5="30.66923" pt_clust_6="30.66923"></scales>
<clustering>
<clus scale="   30.669">  5  6 -1 -1</clus>
<clus scale="   54.875">  2  4  1 -1</clus>
<clus scale="  158.075">  2  3  1 -1</clus>
<clus scale="  163.180">  1  3  2 -1</clus>
</clustering>
</event>
<event>
 6    0  0.1555973E+002  0.1759662E+03  0.7546771E-02  0.1171765E+00
         21   -1    0    0  504  501  0.00000000000E+00  0.00000000000E+00  0.62042258600E+03  0.62042258600E+03  0.00000000000E+00 0.  1.
         21   -1    0    0  505  502 -0.00000000000E+00 -0.00000000000E+00 -0.70820745254E+02  0.70820745254E+02  0.00000000000E+00 0.  1.
         21    1    1    2  503  501 -0.44684860958E+02 -0.10289845152E+03  0.27123874788E+03  0.29352220780E+03  0.00000000000E+00 0.  1.
         21    1    1    2  504  506  0.56497485378E+02  0.18420198341E+03  0.21299513654E+03  0.28720944402E+03  0.00000000000E+00 0.  1.
         21    1    1    2  505  503 -0.18930850918E+02 -0.40263757645E+02  0.47810458776E+02  0.65309932357E+02  0.00000000000E+00 0. -1.
         21    1    1    2  506  502  0.71182264981E+01 -0.41039774238E+02  0.17557497556E+02  0.45201747072E+02  0.00000000000E+00 0.  1.
<scales pt_clust_3="31.01709" pt_clust_4="168.93308" pt_clust_5="31.01709" pt_clust_6="41.65252"></scales>
<clustering>
<clus scale="   31.017">  3  5 -1 -1</clus>
<clus scale="   41.653">  2  6  1 -1</clus>
<clus scale="  168.933">  2  4  1 -1</clus>
<clus scale="  175.966">  1  3  2 -1</clus>
</clustering>
</event>
<event>
 6    0  0.1555973E+002  0.4828988E+03  0.7546771E-02  0.1018342E+00
         21   -1    0    0  505  501  0.00000000000E+00  0.00000000000E+00  0.65356167124E+03  0.65356167124E+03  0.00000000000E+00 0. -1.
         21   -1    0    0  504  502 -0.00000000000E+00 -0.00000000000E+00 -0.69686400454E+03  0.69686400454E+03  0.00000000000E+00 0. -1.
         21    1    1    2  503  501  0.43045935256E+03 -0.19929654706E+03  0.30342402283E+03  0.56309901927E+03  0.00000000000E+00 0. -1.
         21    1    1    2  504  503 -0.40445104322E+02 -0.82683399851E+02 -0.27830925899E+03  0.29313545455E+03  0.00000000000E+00 0. -1.
         21    1    1    2  505  506 -0.21098017824E+02  0.48157366786E+02 -0.10151527317E+02  0.53547286007E+02  0.00000000000E+00 0.  1.
         21    1    1    2  506  502 -0.36891623041E+03  0.23382258013E+03 -0.58265569818E+02  0.44064391595E+03  0.00000000000E+00 0. -1.
<scales pt_clust_3="474.62722" pt_clust_4="92.04538" pt_clust_5="30.87700" pt_clust_6="30.87700"></scales>
<clustering>
<clus scale="   30.877">  5  6 -1 -1</clus>
<clus scale="   92.045">  2  4  1 -1</clus>
<clus scale="  474.627">  1  3  2 -1</clus>
<clus scale="  474.627">  1  3  2 -1</clus>
</clustering>
</event>
<event>
 6    0  0.1555973E+002  0.1118450E+03  0.7546771E-02  0.1257191E+00
         21   -1    0    0  506  501  0.00000000000E+00  0.00000000000E+00  0.32925368582E+02  0.32925368582E+02  0.00000000000E+00 0.  1.
         21   -1    0    0  504  502 -0.00000000000E+00 -0.00000000000E+00 -0.98564561397E+03  0.98564561397E+03  0.00000000000E+00 0.  1.
         21    1    1    2  503  501 -0.10837478954E+01  0.52118422695E+02 -0.64143782999E+02  0.82655486153E+02  0.00000000000E+00 0.  1.
         21    1    1    2  504  505  0.82374669518E+02 -0.74113781240E+02 -0.77881072516E+03  0.78665404364E+03  0.00000000000E+00 0.  1.
         21    1    1    2  505  503 -0.26944462052E+02  0.32235290169E+02 -0.27779364467E+02  0.50366765409E+02  0.00000000000E+00 0.  1.
         21    1    1    2  506  502 -0.54346459571E+02 -0.10239931624E+02 -0.81986372755E+02  0.98894687345E+02  0.00000000000E+00 0.  1.
<scales pt_clust_3="32.91080" pt_clust_4="105.66631" pt_clust_5="32.91080" pt_clust_6="55.30275"></scales>
<clustering>
<clus scale="   32.911">  3  5 -1 -1</clus>
<clus scale="   55.303">  1  6  2 -1</clus>
<clus scale="  105.666">  2  4  1 -1</clus>
<clus scale="   55.303">  1  3  2 -1</clus>
</clustering>
</event>
